Generated by pymatgen.io.lammps.data.LammpsData

768  atoms

  3  atom types

0.000000 23.005160  xlo xhi
0.000000 23.005159  ylo yhi
0.000000 31.183388  zlo zhi
-0.003728 17.220443 17.223230  xy xz yz

Masses

1   69.7230
2  107.8682
3   32.0650

Atoms

1    1 0.0000  6.410264  4.976367  5.164662
2    1 0.0000  9.280338  7.846906 10.361893
3    1 0.0000 12.150412 10.717444 15.559125
4    1 0.0000 15.020486 13.587982 20.756356
5    1 0.0000 17.890560 16.458521 25.953587
6    1 0.0000 20.760633 19.329059 31.150818
7    1 0.0000  6.409332 10.727657  5.164662
8    1 0.0000  9.279406 13.598195 10.361893
9    1 0.0000 12.149480 16.468734 15.559125
10   1 0.0000 15.019554 19.339272 20.756356
11   1 0.0000 17.889628 22.209811 25.953587
12   1 0.0000 20.759701 25.080349 31.150818
13   1 0.0000  6.408400 16.478947  5.164662
14   1 0.0000  9.278474 19.349485 10.361893
15   1 0.0000 12.148548 22.220023 15.559125
16   1 0.0000 15.018622 25.090562 20.756356
17   1 0.0000 17.888695 27.961100 25.953587
18   1 0.0000 20.758769 30.831639 31.150818
19   1 0.0000  6.407468 22.230236  5.164662
20   1 0.0000  9.277542 25.100775 10.361893
21   1 0.0000 12.147616 27.971313 15.559125
22   1 0.0000 15.017690 30.841852 20.756356
23   1 0.0000 17.887763 33.712390 25.953587
24   1 0.0000 20.757837 36.582928 31.150818
25   1 0.0000 12.161554  4.976367  5.164662
26   1 0.0000 15.031628  7.846906 10.361893
27   1 0.0000 17.901702 10.717444 15.559125
28   1 0.0000 20.771776 13.587982 20.756356
29   1 0.0000 23.641850 16.458521 25.953587
30   1 0.0000 26.511923 19.329059 31.150818
31   1 0.0000 12.160622 10.727657  5.164662
32   1 0.0000 15.030696 13.598195 10.361893
33   1 0.0000 17.900770 16.468734 15.559125
34   1 0.0000 20.770844 19.339272 20.756356
35   1 0.0000 23.640918 22.209811 25.953587
36   1 0.0000 26.510991 25.080349 31.150818
37   1 0.0000 12.159690 16.478947  5.164662
38   1 0.0000 15.029764 19.349485 10.361893
39   1 0.0000 17.899838 22.220023 15.559125
40   1 0.0000 20.769912 25.090562 20.756356
41   1 0.0000 23.639986 27.961100 25.953587
42   1 0.0000 26.510059 30.831639 31.150818
43   1 0.0000 12.158758 22.230236  5.164662
44   1 0.0000 15.028832 25.100775 10.361893
45   1 0.0000 17.898906 27.971313 15.559125
46   1 0.0000 20.768980 30.841852 20.756356
47   1 0.0000 23.639053 33.712390 25.953587
48   1 0.0000 26.509127 36.582928 31.150818
49   1 0.0000 17.912844  4.976367  5.164662
50   1 0.0000 20.782918  7.846906 10.361893
51   1 0.0000 23.652992 10.717444 15.559125
52   1 0.0000 26.523066 13.587982 20.756356
53   1 0.0000 29.393140 16.458521 25.953587
54   1 0.0000 32.263213 19.329059 31.150818
55   1 0.0000 17.911912 10.727657  5.164662
56   1 0.0000 20.781986 13.598195 10.361893
57   1 0.0000 23.652060 16.468734 15.559125
58   1 0.0000 26.522134 19.339272 20.756356
59   1 0.0000 29.392208 22.209811 25.953587
60   1 0.0000 32.262281 25.080349 31.150818
61   1 0.0000 17.910980 16.478947  5.164662
62   1 0.0000 20.781054 19.349485 10.361893
63   1 0.0000 23.651128 22.220023 15.559125
64   1 0.0000 26.521202 25.090562 20.756356
65   1 0.0000 29.391276 27.961100 25.953587
66   1 0.0000 32.261349 30.831639 31.150818
67   1 0.0000 17.910048 22.230236  5.164662
68   1 0.0000 20.780122 25.100775 10.361893
69   1 0.0000 23.650196 27.971313 15.559125
70   1 0.0000 26.520270 30.841852 20.756356
71   1 0.0000 29.390344 33.712390 25.953587
72   1 0.0000 32.260417 36.582928 31.150818
73   1 0.0000 23.664134  4.976367  5.164662
74   1 0.0000 26.534208  7.846906 10.361893
75   1 0.0000 29.404282 10.717444 15.559125
76   1 0.0000 32.274356 13.587982 20.756356
77   1 0.0000 35.144430 16.458521 25.953587
78   1 0.0000 38.014503 19.329059 31.150818
79   1 0.0000 23.663202 10.727657  5.164662
80   1 0.0000 26.533276 13.598195 10.361893
81   1 0.0000 29.403350 16.468734 15.559125
82   1 0.0000 32.273424 19.339272 20.756356
83   1 0.0000 35.143498 22.209811 25.953587
84   1 0.0000 38.013571 25.080349 31.150818
85   1 0.0000 23.662270 16.478947  5.164662
86   1 0.0000 26.532344 19.349485 10.361893
87   1 0.0000 29.402418 22.220023 15.559125
88   1 0.0000 32.272492 25.090562 20.756356
89   1 0.0000 35.142566 27.961100 25.953587
90   1 0.0000 38.012639 30.831639 31.150818
91   1 0.0000 23.661338 22.230236  5.164662
92   1 0.0000 26.531412 25.100775 10.361893
93   1 0.0000 29.401486 27.971313 15.559125
94   1 0.0000 32.271560 30.841852 20.756356
95   1 0.0000 35.141634 33.712390 25.953587
96   1 0.0000 38.011707 36.582928 31.150818
97   1 0.0000  3.540292  4.975801  2.566046
98   1 0.0000  6.410366  7.846339  7.763278
99   1 0.0000  9.280440 10.716878 12.960509
100  1 0.0000 12.150513 13.587416 18.157740
101  1 0.0000 15.020587 16.457954 23.354972
102  1 0.0000 17.890661 19.328493 28.552203
103  1 0.0000  3.539360 10.727091  2.566046
104  1 0.0000  6.409434 13.597629  7.763278
105  1 0.0000  9.279507 16.468167 12.960509
106  1 0.0000 12.149581 19.338706 18.157740
107  1 0.0000 15.019655 22.209244 23.354972
108  1 0.0000 17.889729 25.079783 28.552203
109  1 0.0000  3.538428 16.478380  2.566046
110  1 0.0000  6.408502 19.348919  7.763278
111  1 0.0000  9.278575 22.219457 12.960509
112  1 0.0000 12.148649 25.089996 18.157740
113  1 0.0000 15.018723 27.960534 23.354972
114  1 0.0000 17.888797 30.831072 28.552203
115  1 0.0000  3.537496 22.229670  2.566046
116  1 0.0000  6.407570 25.100209  7.763278
117  1 0.0000  9.277643 27.970747 12.960509
118  1 0.0000 12.147717 30.841285 18.157740
119  1 0.0000 15.017791 33.711824 23.354972
120  1 0.0000 17.887865 36.582362 28.552203
121  1 0.0000  9.291582  4.975801  2.566046
122  1 0.0000 12.161656  7.846339  7.763278
123  1 0.0000 15.031730 10.716878 12.960509
124  1 0.0000 17.901803 13.587416 18.157740
125  1 0.0000 20.771877 16.457954 23.354972
126  1 0.0000 23.641951 19.328493 28.552203
127  1 0.0000  9.290650 10.727091  2.566046
128  1 0.0000 12.160724 13.597629  7.763278
129  1 0.0000 15.030798 16.468167 12.960509
130  1 0.0000 17.900871 19.338706 18.157740
131  1 0.0000 20.770945 22.209244 23.354972
132  1 0.0000 23.641019 25.079783 28.552203
133  1 0.0000  9.289718 16.478380  2.566046
134  1 0.0000 12.159792 19.348919  7.763278
135  1 0.0000 15.029865 22.219457 12.960509
136  1 0.0000 17.899939 25.089996 18.157740
137  1 0.0000 20.770013 27.960534 23.354972
138  1 0.0000 23.640087 30.831072 28.552203
139  1 0.0000  9.288786 22.229670  2.566046
140  1 0.0000 12.158860 25.100209  7.763278
141  1 0.0000 15.028933 27.970747 12.960509
142  1 0.0000 17.899007 30.841285 18.157740
143  1 0.0000 20.769081 33.711824 23.354972
144  1 0.0000 23.639155 36.582362 28.552203
145  1 0.0000 15.042872  4.975801  2.566046
146  1 0.0000 17.912946  7.846339  7.763278
147  1 0.0000 20.783020 10.716878 12.960509
148  1 0.0000 23.653093 13.587416 18.157740
149  1 0.0000 26.523167 16.457954 23.354972
150  1 0.0000 29.393241 19.328493 28.552203
151  1 0.0000 15.041940 10.727091  2.566046
152  1 0.0000 17.912014 13.597629  7.763278
153  1 0.0000 20.782088 16.468167 12.960509
154  1 0.0000 23.652161 19.338706 18.157740
155  1 0.0000 26.522235 22.209244 23.354972
156  1 0.0000 29.392309 25.079783 28.552203
157  1 0.0000 15.041008 16.478380  2.566046
158  1 0.0000 17.911082 19.348919  7.763278
159  1 0.0000 20.781156 22.219457 12.960509
160  1 0.0000 23.651229 25.089996 18.157740
161  1 0.0000 26.521303 27.960534 23.354972
162  1 0.0000 29.391377 30.831072 28.552203
163  1 0.0000 15.040076 22.229670  2.566046
164  1 0.0000 17.910150 25.100209  7.763278
165  1 0.0000 20.780223 27.970747 12.960509
166  1 0.0000 23.650297 30.841285 18.157740
167  1 0.0000 26.520371 33.711824 23.354972
168  1 0.0000 29.390445 36.582362 28.552203
169  1 0.0000 20.794162  4.975801  2.566046
170  1 0.0000 23.664236  7.846339  7.763278
171  1 0.0000 26.534310 10.716878 12.960509
172  1 0.0000 29.404383 13.587416 18.157740
173  1 0.0000 32.274457 16.457954 23.354972
174  1 0.0000 35.144531 19.328493 28.552203
175  1 0.0000 20.793230 10.727091  2.566046
176  1 0.0000 23.663304 13.597629  7.763278
177  1 0.0000 26.533378 16.468167 12.960509
178  1 0.0000 29.403451 19.338706 18.157740
179  1 0.0000 32.273525 22.209244 23.354972
180  1 0.0000 35.143599 25.079783 28.552203
181  1 0.0000 20.792298 16.478380  2.566046
182  1 0.0000 23.662372 19.348919  7.763278
183  1 0.0000 26.532446 22.219457 12.960509
184  1 0.0000 29.402519 25.089996 18.157740
185  1 0.0000 32.272593 27.960534 23.354972
186  1 0.0000 35.142667 30.831072 28.552203
187  1 0.0000 20.791366 22.229670  2.566046
188  1 0.0000 23.661440 25.100209  7.763278
189  1 0.0000 26.531514 27.970747 12.960509
190  1 0.0000 29.401587 30.841285 18.157740
191  1 0.0000 32.271661 33.711824 23.354972
192  1 0.0000 35.141735 36.582362 28.552203
193  2 0.0000  3.531536  7.869775  5.165847
194  2 0.0000  6.401610 10.740313 10.363078
195  2 0.0000  9.271684 13.610852 15.560309
196  2 0.0000 12.141758 16.481390 20.757541
197  2 0.0000 15.011831 19.351929 25.954772
198  2 0.0000 17.881905 22.222467 31.152003
199  2 0.0000  3.530604 13.621065  5.165847
200  2 0.0000  6.400678 16.491603 10.363078
201  2 0.0000  9.270752 19.362141 15.560309
202  2 0.0000 12.140825 22.232680 20.757541
203  2 0.0000 15.010899 25.103218 25.954772
204  2 0.0000 17.880973 27.973757 31.152003
205  2 0.0000  3.529672 19.372354  5.165847
206  2 0.0000  6.399746 22.242893 10.363078
207  2 0.0000  9.269820 25.113431 15.560309
208  2 0.0000 12.139893 27.983970 20.757541
209  2 0.0000 15.009967 30.854508 25.954772
210  2 0.0000 17.880041 33.725046 31.152003
211  2 0.0000  3.528740 25.123644  5.165847
212  2 0.0000  6.398814 27.994183 10.363078
213  2 0.0000  9.268888 30.864721 15.560309
214  2 0.0000 12.138961 33.735259 20.757541
215  2 0.0000 15.009035 36.605798 25.954772
216  2 0.0000 17.879109 39.476336 31.152003
217  2 0.0000  9.282826  7.869775  5.165847
218  2 0.0000 12.152900 10.740313 10.363078
219  2 0.0000 15.022974 13.610852 15.560309
220  2 0.0000 17.893048 16.481390 20.757541
221  2 0.0000 20.763121 19.351929 25.954772
222  2 0.0000 23.633195 22.222467 31.152003
223  2 0.0000  9.281894 13.621065  5.165847
224  2 0.0000 12.151968 16.491603 10.363078
225  2 0.0000 15.022042 19.362141 15.560309
226  2 0.0000 17.892116 22.232680 20.757541
227  2 0.0000 20.762189 25.103218 25.954772
228  2 0.0000 23.632263 27.973757 31.152003
229  2 0.0000  9.280962 19.372354  5.165847
230  2 0.0000 12.151036 22.242893 10.363078
231  2 0.0000 15.021110 25.113431 15.560309
232  2 0.0000 17.891183 27.983970 20.757541
233  2 0.0000 20.761257 30.854508 25.954772
234  2 0.0000 23.631331 33.725046 31.152003
235  2 0.0000  9.280030 25.123644  5.165847
236  2 0.0000 12.150104 27.994183 10.363078
237  2 0.0000 15.020178 30.864721 15.560309
238  2 0.0000 17.890251 33.735259 20.757541
239  2 0.0000 20.760325 36.605798 25.954772
240  2 0.0000 23.630399 39.476336 31.152003
241  2 0.0000 15.034116  7.869775  5.165847
242  2 0.0000 17.904190 10.740313 10.363078
243  2 0.0000 20.774264 13.610852 15.560309
244  2 0.0000 23.644338 16.481390 20.757541
245  2 0.0000 26.514411 19.351929 25.954772
246  2 0.0000 29.384485 22.222467 31.152003
247  2 0.0000 15.033184 13.621065  5.165847
248  2 0.0000 17.903258 16.491603 10.363078
249  2 0.0000 20.773332 19.362141 15.560309
250  2 0.0000 23.643406 22.232680 20.757541
251  2 0.0000 26.513479 25.103218 25.954772
252  2 0.0000 29.383553 27.973757 31.152003
253  2 0.0000 15.032252 19.372354  5.165847
254  2 0.0000 17.902326 22.242893 10.363078
255  2 0.0000 20.772400 25.113431 15.560309
256  2 0.0000 23.642474 27.983970 20.757541
257  2 0.0000 26.512547 30.854508 25.954772
258  2 0.0000 29.382621 33.725046 31.152003
259  2 0.0000 15.031320 25.123644  5.165847
260  2 0.0000 17.901394 27.994183 10.363078
261  2 0.0000 20.771468 30.864721 15.560309
262  2 0.0000 23.641541 33.735259 20.757541
263  2 0.0000 26.511615 36.605798 25.954772
264  2 0.0000 29.381689 39.476336 31.152003
265  2 0.0000 20.785406  7.869775  5.165847
266  2 0.0000 23.655480 10.740313 10.363078
267  2 0.0000 26.525554 13.610852 15.560309
268  2 0.0000 29.395628 16.481390 20.757541
269  2 0.0000 32.265701 19.351929 25.954772
270  2 0.0000 35.135775 22.222467 31.152003
271  2 0.0000 20.784474 13.621065  5.165847
272  2 0.0000 23.654548 16.491603 10.363078
273  2 0.0000 26.524622 19.362141 15.560309
274  2 0.0000 29.394696 22.232680 20.757541
275  2 0.0000 32.264769 25.103218 25.954772
276  2 0.0000 35.134843 27.973757 31.152003
277  2 0.0000 20.783542 19.372354  5.165847
278  2 0.0000 23.653616 22.242893 10.363078
279  2 0.0000 26.523690 25.113431 15.560309
280  2 0.0000 29.393764 27.983970 20.757541
281  2 0.0000 32.263837 30.854508 25.954772
282  2 0.0000 35.133911 33.725046 31.152003
283  2 0.0000 20.782610 25.123644  5.165847
284  2 0.0000 23.652684 27.994183 10.363078
285  2 0.0000 26.522758 30.864721 15.560309
286  2 0.0000 29.392831 33.735259 20.757541
287  2 0.0000 32.262905 36.605798 25.954772
288  2 0.0000 35.132979 39.476336 31.152003
289  2 0.0000  6.434166  2.097542  2.567231
290  2 0.0000  9.304240  4.968080  7.764462
291  2 0.0000 12.174314  7.838618 12.961694
292  2 0.0000 15.044388 10.709157 18.158925
293  2 0.0000 17.914462 13.579695 23.356156
294  2 0.0000 20.784535 16.450234 28.553388
295  2 0.0000  6.433234  7.848831  2.567231
296  2 0.0000  9.303308 10.719370  7.764462
297  2 0.0000 12.173382 13.589908 12.961694
298  2 0.0000 15.043456 16.460447 18.158925
299  2 0.0000 17.913529 19.330985 23.356156
300  2 0.0000 20.783603 22.201523 28.553388
301  2 0.0000  6.432302 13.600121  2.567231
302  2 0.0000  9.302376 16.470660  7.764462
303  2 0.0000 12.172450 19.341198 12.961694
304  2 0.0000 15.042524 22.211736 18.158925
305  2 0.0000 17.912597 25.082275 23.356156
306  2 0.0000 20.782671 27.952813 28.553388
307  2 0.0000  6.431370 19.351411  2.567231
308  2 0.0000  9.301444 22.221949  7.764462
309  2 0.0000 12.171518 25.092488 12.961694
310  2 0.0000 15.041592 27.963026 18.158925
311  2 0.0000 17.911665 30.833565 23.356156
312  2 0.0000 20.781739 33.704103 28.553388
313  2 0.0000 12.185456  2.097542  2.567231
314  2 0.0000 15.055530  4.968080  7.764462
315  2 0.0000 17.925604  7.838618 12.961694
316  2 0.0000 20.795678 10.709157 18.158925
317  2 0.0000 23.665752 13.579695 23.356156
318  2 0.0000 26.535825 16.450234 28.553388
319  2 0.0000 12.184524  7.848831  2.567231
320  2 0.0000 15.054598 10.719370  7.764462
321  2 0.0000 17.924672 13.589908 12.961694
322  2 0.0000 20.794746 16.460447 18.158925
323  2 0.0000 23.664820 19.330985 23.356156
324  2 0.0000 26.534893 22.201523 28.553388
325  2 0.0000 12.183592 13.600121  2.567231
326  2 0.0000 15.053666 16.470660  7.764462
327  2 0.0000 17.923740 19.341198 12.961694
328  2 0.0000 20.793814 22.211736 18.158925
329  2 0.0000 23.663887 25.082275 23.356156
330  2 0.0000 26.533961 27.952813 28.553388
331  2 0.0000 12.182660 19.351411  2.567231
332  2 0.0000 15.052734 22.221949  7.764462
333  2 0.0000 17.922808 25.092488 12.961694
334  2 0.0000 20.792882 27.963026 18.158925
335  2 0.0000 23.662955 30.833565 23.356156
336  2 0.0000 26.533029 33.704103 28.553388
337  2 0.0000 17.936746  2.097542  2.567231
338  2 0.0000 20.806820  4.968080  7.764462
339  2 0.0000 23.676894  7.838618 12.961694
340  2 0.0000 26.546968 10.709157 18.158925
341  2 0.0000 29.417042 13.579695 23.356156
342  2 0.0000 32.287115 16.450234 28.553388
343  2 0.0000 17.935814  7.848831  2.567231
344  2 0.0000 20.805888 10.719370  7.764462
345  2 0.0000 23.675962 13.589908 12.961694
346  2 0.0000 26.546036 16.460447 18.158925
347  2 0.0000 29.416110 19.330985 23.356156
348  2 0.0000 32.286183 22.201523 28.553388
349  2 0.0000 17.934882 13.600121  2.567231
350  2 0.0000 20.804956 16.470660  7.764462
351  2 0.0000 23.675030 19.341198 12.961694
352  2 0.0000 26.545104 22.211736 18.158925
353  2 0.0000 29.415177 25.082275 23.356156
354  2 0.0000 32.285251 27.952813 28.553388
355  2 0.0000 17.933950 19.351411  2.567231
356  2 0.0000 20.804024 22.221949  7.764462
357  2 0.0000 23.674098 25.092488 12.961694
358  2 0.0000 26.544172 27.963026 18.158925
359  2 0.0000 29.414245 30.833565 23.356156
360  2 0.0000 32.284319 33.704103 28.553388
361  2 0.0000 23.688036  2.097542  2.567231
362  2 0.0000 26.558110  4.968080  7.764462
363  2 0.0000 29.428184  7.838618 12.961694
364  2 0.0000 32.298258 10.709157 18.158925
365  2 0.0000 35.168332 13.579695 23.356156
366  2 0.0000 38.038405 16.450234 28.553388
367  2 0.0000 23.687104  7.848831  2.567231
368  2 0.0000 26.557178 10.719370  7.764462
369  2 0.0000 29.427252 13.589908 12.961694
370  2 0.0000 32.297326 16.460447 18.158925
371  2 0.0000 35.167400 19.330985 23.356156
372  2 0.0000 38.037473 22.201523 28.553388
373  2 0.0000 23.686172 13.600121  2.567231
374  2 0.0000 26.556246 16.470660  7.764462
375  2 0.0000 29.426320 19.341198 12.961694
376  2 0.0000 32.296394 22.211736 18.158925
377  2 0.0000 35.166468 25.082275 23.356156
378  2 0.0000 38.036541 27.952813 28.553388
379  2 0.0000 23.685240 19.351411  2.567231
380  2 0.0000 26.555314 22.221949  7.764462
381  2 0.0000 29.425388 25.092488 12.961694
382  2 0.0000 32.295462 27.963026 18.158925
383  2 0.0000 35.165535 30.833565 23.356156
384  2 0.0000 38.035609 33.704103 28.553388
385  3 0.0000  4.982896  3.757655  3.857185
386  3 0.0000  7.852970  6.628193  9.054416
387  3 0.0000 10.723044  9.498732 14.251648
388  3 0.0000 13.593118 12.369270 19.448879
389  3 0.0000 16.463191 15.239809 24.646110
390  3 0.0000 19.333265 18.110347 29.843342
391  3 0.0000  4.981964  9.508945  3.857185
392  3 0.0000  7.852038 12.379483  9.054416
393  3 0.0000 10.722112 15.250021 14.251648
394  3 0.0000 13.592185 18.120560 19.448879
395  3 0.0000 16.462259 20.991098 24.646110
396  3 0.0000 19.332333 23.861637 29.843342
397  3 0.0000  4.981032 15.260234  3.857185
398  3 0.0000  7.851106 18.130773  9.054416
399  3 0.0000 10.721180 21.001311 14.251648
400  3 0.0000 13.591253 23.871850 19.448879
401  3 0.0000 16.461327 26.742388 24.646110
402  3 0.0000 19.331401 29.612926 29.843342
403  3 0.0000  4.980100 21.011524  3.857185
404  3 0.0000  7.850174 23.882063  9.054416
405  3 0.0000 10.720248 26.752601 14.251648
406  3 0.0000 13.590321 29.623139 19.448879
407  3 0.0000 16.460395 32.493678 24.646110
408  3 0.0000 19.330469 35.364216 29.843342
409  3 0.0000 10.734186  3.757655  3.857185
410  3 0.0000 13.604260  6.628193  9.054416
411  3 0.0000 16.474334  9.498732 14.251648
412  3 0.0000 19.344408 12.369270 19.448879
413  3 0.0000 22.214481 15.239809 24.646110
414  3 0.0000 25.084555 18.110347 29.843342
415  3 0.0000 10.733254  9.508945  3.857185
416  3 0.0000 13.603328 12.379483  9.054416
417  3 0.0000 16.473402 15.250021 14.251648
418  3 0.0000 19.343475 18.120560 19.448879
419  3 0.0000 22.213549 20.991098 24.646110
420  3 0.0000 25.083623 23.861637 29.843342
421  3 0.0000 10.732322 15.260234  3.857185
422  3 0.0000 13.602396 18.130773  9.054416
423  3 0.0000 16.472470 21.001311 14.251648
424  3 0.0000 19.342543 23.871850 19.448879
425  3 0.0000 22.212617 26.742388 24.646110
426  3 0.0000 25.082691 29.612926 29.843342
427  3 0.0000 10.731390 21.011524  3.857185
428  3 0.0000 13.601464 23.882063  9.054416
429  3 0.0000 16.471538 26.752601 14.251648
430  3 0.0000 19.341611 29.623139 19.448879
431  3 0.0000 22.211685 32.493678 24.646110
432  3 0.0000 25.081759 35.364216 29.843342
433  3 0.0000 16.485476  3.757655  3.857185
434  3 0.0000 19.355550  6.628193  9.054416
435  3 0.0000 22.225624  9.498732 14.251648
436  3 0.0000 25.095698 12.369270 19.448879
437  3 0.0000 27.965771 15.239809 24.646110
438  3 0.0000 30.835845 18.110347 29.843342
439  3 0.0000 16.484544  9.508945  3.857185
440  3 0.0000 19.354618 12.379483  9.054416
441  3 0.0000 22.224692 15.250021 14.251648
442  3 0.0000 25.094766 18.120560 19.448879
443  3 0.0000 27.964839 20.991098 24.646110
444  3 0.0000 30.834913 23.861637 29.843342
445  3 0.0000 16.483612 15.260234  3.857185
446  3 0.0000 19.353686 18.130773  9.054416
447  3 0.0000 22.223760 21.001311 14.251648
448  3 0.0000 25.093833 23.871850 19.448879
449  3 0.0000 27.963907 26.742388 24.646110
450  3 0.0000 30.833981 29.612926 29.843342
451  3 0.0000 16.482680 21.011524  3.857185
452  3 0.0000 19.352754 23.882063  9.054416
453  3 0.0000 22.222828 26.752601 14.251648
454  3 0.0000 25.092901 29.623139 19.448879
455  3 0.0000 27.962975 32.493678 24.646110
456  3 0.0000 30.833049 35.364216 29.843342
457  3 0.0000 22.236766  3.757655  3.857185
458  3 0.0000 25.106840  6.628193  9.054416
459  3 0.0000 27.976914  9.498732 14.251648
460  3 0.0000 30.846988 12.369270 19.448879
461  3 0.0000 33.717061 15.239809 24.646110
462  3 0.0000 36.587135 18.110347 29.843342
463  3 0.0000 22.235834  9.508945  3.857185
464  3 0.0000 25.105908 12.379483  9.054416
465  3 0.0000 27.975982 15.250021 14.251648
466  3 0.0000 30.846056 18.120560 19.448879
467  3 0.0000 33.716129 20.991098 24.646110
468  3 0.0000 36.586203 23.861637 29.843342
469  3 0.0000 22.234902 15.260234  3.857185
470  3 0.0000 25.104976 18.130773  9.054416
471  3 0.0000 27.975050 21.001311 14.251648
472  3 0.0000 30.845124 23.871850 19.448879
473  3 0.0000 33.715197 26.742388 24.646110
474  3 0.0000 36.585271 29.612926 29.843342
475  3 0.0000 22.233970 21.011524  3.857185
476  3 0.0000 25.104044 23.882063  9.054416
477  3 0.0000 27.974118 26.752601 14.251648
478  3 0.0000 30.844191 29.623139 19.448879
479  3 0.0000 33.714265 32.493678 24.646110
480  3 0.0000 36.584339 35.364216 29.843342
481  3 0.0000  4.751450  6.423784  1.274074
482  3 0.0000  7.621524  9.294322  6.471306
483  3 0.0000 10.491597 12.164861 11.668537
484  3 0.0000 13.361671 15.035399 16.865768
485  3 0.0000 16.231745 17.905937 22.062999
486  3 0.0000 19.101819 20.776476 27.260231
487  3 0.0000  4.750518 12.175074  1.274074
488  3 0.0000  7.620591 15.045612  6.471306
489  3 0.0000 10.490665 17.916150 11.668537
490  3 0.0000 13.360739 20.786689 16.865768
491  3 0.0000 16.230813 23.657227 22.062999
492  3 0.0000 19.100887 26.527766 27.260231
493  3 0.0000  4.749586 17.926363  1.274074
494  3 0.0000  7.619659 20.796902  6.471306
495  3 0.0000 10.489733 23.667440 11.668537
496  3 0.0000 13.359807 26.537979 16.865768
497  3 0.0000 16.229881 29.408517 22.062999
498  3 0.0000 19.099955 32.279055 27.260231
499  3 0.0000  4.748654 23.677653  1.274074
500  3 0.0000  7.618727 26.548192  6.471306
501  3 0.0000 10.488801 29.418730 11.668537
502  3 0.0000 13.358875 32.289268 16.865768
503  3 0.0000 16.228949 35.159807 22.062999
504  3 0.0000 19.099023 38.030345 27.260231
505  3 0.0000 10.502740  6.423784  1.274074
506  3 0.0000 13.372814  9.294322  6.471306
507  3 0.0000 16.242887 12.164861 11.668537
508  3 0.0000 19.112961 15.035399 16.865768
509  3 0.0000 21.983035 17.905937 22.062999
510  3 0.0000 24.853109 20.776476 27.260231
511  3 0.0000 10.501808 12.175074  1.274074
512  3 0.0000 13.371881 15.045612  6.471306
513  3 0.0000 16.241955 17.916150 11.668537
514  3 0.0000 19.112029 20.786689 16.865768
515  3 0.0000 21.982103 23.657227 22.062999
516  3 0.0000 24.852177 26.527766 27.260231
517  3 0.0000 10.500876 17.926363  1.274074
518  3 0.0000 13.370949 20.796902  6.471306
519  3 0.0000 16.241023 23.667440 11.668537
520  3 0.0000 19.111097 26.537979 16.865768
521  3 0.0000 21.981171 29.408517 22.062999
522  3 0.0000 24.851245 32.279055 27.260231
523  3 0.0000 10.499944 23.677653  1.274074
524  3 0.0000 13.370017 26.548192  6.471306
525  3 0.0000 16.240091 29.418730 11.668537
526  3 0.0000 19.110165 32.289268 16.865768
527  3 0.0000 21.980239 35.159807 22.062999
528  3 0.0000 24.850313 38.030345 27.260231
529  3 0.0000 16.254030  6.423784  1.274074
530  3 0.0000 19.124104  9.294322  6.471306
531  3 0.0000 21.994177 12.164861 11.668537
532  3 0.0000 24.864251 15.035399 16.865768
533  3 0.0000 27.734325 17.905937 22.062999
534  3 0.0000 30.604399 20.776476 27.260231
535  3 0.0000 16.253098 12.175074  1.274074
536  3 0.0000 19.123172 15.045612  6.471306
537  3 0.0000 21.993245 17.916150 11.668537
538  3 0.0000 24.863319 20.786689 16.865768
539  3 0.0000 27.733393 23.657227 22.062999
540  3 0.0000 30.603467 26.527766 27.260231
541  3 0.0000 16.252166 17.926363  1.274074
542  3 0.0000 19.122239 20.796902  6.471306
543  3 0.0000 21.992313 23.667440 11.668537
544  3 0.0000 24.862387 26.537979 16.865768
545  3 0.0000 27.732461 29.408517 22.062999
546  3 0.0000 30.602535 32.279055 27.260231
547  3 0.0000 16.251234 23.677653  1.274074
548  3 0.0000 19.121307 26.548192  6.471306
549  3 0.0000 21.991381 29.418730 11.668537
550  3 0.0000 24.861455 32.289268 16.865768
551  3 0.0000 27.731529 35.159807 22.062999
552  3 0.0000 30.601603 38.030345 27.260231
553  3 0.0000 22.005320  6.423784  1.274074
554  3 0.0000 24.875394  9.294322  6.471306
555  3 0.0000 27.745467 12.164861 11.668537
556  3 0.0000 30.615541 15.035399 16.865768
557  3 0.0000 33.485615 17.905937 22.062999
558  3 0.0000 36.355689 20.776476 27.260231
559  3 0.0000 22.004388 12.175074  1.274074
560  3 0.0000 24.874462 15.045612  6.471306
561  3 0.0000 27.744535 17.916150 11.668537
562  3 0.0000 30.614609 20.786689 16.865768
563  3 0.0000 33.484683 23.657227 22.062999
564  3 0.0000 36.354757 26.527766 27.260231
565  3 0.0000 22.003456 17.926363  1.274074
566  3 0.0000 24.873530 20.796902  6.471306
567  3 0.0000 27.743603 23.667440 11.668537
568  3 0.0000 30.613677 26.537979 16.865768
569  3 0.0000 33.483751 29.408517 22.062999
570  3 0.0000 36.353825 32.279055 27.260231
571  3 0.0000 22.002524 23.677653  1.274074
572  3 0.0000 24.872597 26.548192  6.471306
573  3 0.0000 27.742671 29.418730 11.668537
574  3 0.0000 30.612745 32.289268 16.865768
575  3 0.0000 33.482819 35.159807 22.062999
576  3 0.0000 36.352893 38.030345 27.260231
577  3 0.0000  2.321811  3.548235  1.258570
578  3 0.0000  5.191885  6.418774  6.455801
579  3 0.0000  8.061959  9.289312 11.653032
580  3 0.0000 10.932032 12.159851 16.850263
581  3 0.0000 13.802106 15.030389 22.047495
582  3 0.0000 16.672180 17.900927 27.244726
583  3 0.0000  2.320879  9.299525  1.258570
584  3 0.0000  5.190953 12.170063  6.455801
585  3 0.0000  8.061026 15.040602 11.653032
586  3 0.0000 10.931100 17.911140 16.850263
587  3 0.0000 13.801174 20.781679 22.047495
588  3 0.0000 16.671248 23.652217 27.244726
589  3 0.0000  2.319947 15.050815  1.258570
590  3 0.0000  5.190021 17.921353  6.455801
591  3 0.0000  8.060094 20.791892 11.653032
592  3 0.0000 10.930168 23.662430 16.850263
593  3 0.0000 13.800242 26.532968 22.047495
594  3 0.0000 16.670316 29.403507 27.244726
595  3 0.0000  2.319015 20.802105  1.258570
596  3 0.0000  5.189089 23.672643  6.455801
597  3 0.0000  8.059162 26.543181 11.653032
598  3 0.0000 10.929236 29.413720 16.850263
599  3 0.0000 13.799310 32.284258 22.047495
600  3 0.0000 16.669384 35.154797 27.244726
601  3 0.0000  8.073101  3.548235  1.258570
602  3 0.0000 10.943175  6.418774  6.455801
603  3 0.0000 13.813249  9.289312 11.653032
604  3 0.0000 16.683322 12.159851 16.850263
605  3 0.0000 19.553396 15.030389 22.047495
606  3 0.0000 22.423470 17.900927 27.244726
607  3 0.0000  8.072169  9.299525  1.258570
608  3 0.0000 10.942243 12.170063  6.455801
609  3 0.0000 13.812316 15.040602 11.653032
610  3 0.0000 16.682390 17.911140 16.850263
611  3 0.0000 19.552464 20.781679 22.047495
612  3 0.0000 22.422538 23.652217 27.244726
613  3 0.0000  8.071237 15.050815  1.258570
614  3 0.0000 10.941311 17.921353  6.455801
615  3 0.0000 13.811384 20.791892 11.653032
616  3 0.0000 16.681458 23.662430 16.850263
617  3 0.0000 19.551532 26.532968 22.047495
618  3 0.0000 22.421606 29.403507 27.244726
619  3 0.0000  8.070305 20.802105  1.258570
620  3 0.0000 10.940379 23.672643  6.455801
621  3 0.0000 13.810452 26.543181 11.653032
622  3 0.0000 16.680526 29.413720 16.850263
623  3 0.0000 19.550600 32.284258 22.047495
624  3 0.0000 22.420674 35.154797 27.244726
625  3 0.0000 13.824391  3.548235  1.258570
626  3 0.0000 16.694465  6.418774  6.455801
627  3 0.0000 19.564539  9.289312 11.653032
628  3 0.0000 22.434612 12.159851 16.850263
629  3 0.0000 25.304686 15.030389 22.047495
630  3 0.0000 28.174760 17.900927 27.244726
631  3 0.0000 13.823459  9.299525  1.258570
632  3 0.0000 16.693533 12.170063  6.455801
633  3 0.0000 19.563607 15.040602 11.653032
634  3 0.0000 22.433680 17.911140 16.850263
635  3 0.0000 25.303754 20.781679 22.047495
636  3 0.0000 28.173828 23.652217 27.244726
637  3 0.0000 13.822527 15.050815  1.258570
638  3 0.0000 16.692601 17.921353  6.455801
639  3 0.0000 19.562674 20.791892 11.653032
640  3 0.0000 22.432748 23.662430 16.850263
641  3 0.0000 25.302822 26.532968 22.047495
642  3 0.0000 28.172896 29.403507 27.244726
643  3 0.0000 13.821595 20.802105  1.258570
644  3 0.0000 16.691669 23.672643  6.455801
645  3 0.0000 19.561742 26.543181 11.653032
646  3 0.0000 22.431816 29.413720 16.850263
647  3 0.0000 25.301890 32.284258 22.047495
648  3 0.0000 28.171964 35.154797 27.244726
649  3 0.0000 19.575681  3.548235  1.258570
650  3 0.0000 22.445755  6.418774  6.455801
651  3 0.0000 25.315829  9.289312 11.653032
652  3 0.0000 28.185902 12.159851 16.850263
653  3 0.0000 31.055976 15.030389 22.047495
654  3 0.0000 33.926050 17.900927 27.244726
655  3 0.0000 19.574749  9.299525  1.258570
656  3 0.0000 22.444823 12.170063  6.455801
657  3 0.0000 25.314897 15.040602 11.653032
658  3 0.0000 28.184970 17.911140 16.850263
659  3 0.0000 31.055044 20.781679 22.047495
660  3 0.0000 33.925118 23.652217 27.244726
661  3 0.0000 19.573817 15.050815  1.258570
662  3 0.0000 22.443891 17.921353  6.455801
663  3 0.0000 25.313965 20.791892 11.653032
664  3 0.0000 28.184038 23.662430 16.850263
665  3 0.0000 31.054112 26.532968 22.047495
666  3 0.0000 33.924186 29.403507 27.244726
667  3 0.0000 19.572885 20.802105  1.258570
668  3 0.0000 22.442959 23.672643  6.455801
669  3 0.0000 25.313032 26.543181 11.653032
670  3 0.0000 28.183106 29.413720 16.850263
671  3 0.0000 31.053180 32.284258 22.047495
672  3 0.0000 33.923254 35.154797 27.244726
673  3 0.0000  7.858051  6.187760  3.872690
674  3 0.0000 10.728125  9.058298  9.069921
675  3 0.0000 13.598199 11.928836 14.267152
676  3 0.0000 16.468272 14.799375 19.464384