Generated by pymatgen.io.lammps.data.LammpsData

128  atoms

  3  atom types

0.000000 11.502580  xlo xhi
0.000000 11.502580  ylo yhi
0.000000 20.788925  zlo zhi
-0.001864 11.480295 11.482154  xy xz yz

Masses

1   69.7230
2  107.8682
3   32.0650

Atoms

1    1 0.0000  6.410264  4.976367  5.164662
2    1 0.0000  9.280338  7.846906 10.361893
3    1 0.0000 12.150412 10.717444 15.559125
4    1 0.0000 15.020486 13.587982 20.756356
5    1 0.0000  6.409332 10.727657  5.164662
6    1 0.0000  9.279406 13.598195 10.361893
7    1 0.0000 12.149480 16.468734 15.559125
8    1 0.0000 15.019554 19.339272 20.756356
9    1 0.0000 12.161554  4.976367  5.164662
10   1 0.0000 15.031628  7.846906 10.361893
11   1 0.0000 17.901702 10.717444 15.559125
12   1 0.0000 20.771776 13.587982 20.756356
13   1 0.0000 12.160622 10.727657  5.164662
14   1 0.0000 15.030696 13.598195 10.361893
15   1 0.0000 17.900770 16.468734 15.559125
16   1 0.0000 20.770844 19.339272 20.756356
17   1 0.0000  3.540292  4.975801  2.566046
18   1 0.0000  6.410366  7.846339  7.763278
19   1 0.0000  9.280440 10.716878 12.960509
20   1 0.0000 12.150513 13.587416 18.157740
21   1 0.0000  3.539360 10.727091  2.566046
22   1 0.0000  6.409434 13.597629  7.763278
23   1 0.0000  9.279507 16.468167 12.960509
24   1 0.0000 12.149581 19.338706 18.157740
25   1 0.0000  9.291582  4.975801  2.566046
26   1 0.0000 12.161656  7.846339  7.763278
27   1 0.0000 15.031730 10.716878 12.960509
28   1 0.0000 17.901803 13.587416 18.157740
29   1 0.0000  9.290650 10.727091  2.566046
30   1 0.0000 12.160724 13.597629  7.763278
31   1 0.0000 15.030798 16.468167 12.960509
32   1 0.0000 17.900871 19.338706 18.157740
33   2 0.0000  3.531536  7.869775  5.165847
34   2 0.0000  6.401610 10.740313 10.363078
35   2 0.0000  9.271684 13.610852 15.560309
36   2 0.0000 12.141758 16.481390 20.757541
37   2 0.0000  3.530604 13.621065  5.165847
38   2 0.0000  6.400678 16.491603 10.363078
39   2 0.0000  9.270752 19.362141 15.560309
40   2 0.0000 12.140825 22.232680 20.757541
41   2 0.0000  9.282826  7.869775  5.165847
42   2 0.0000 12.152900 10.740313 10.363078
43   2 0.0000 15.022974 13.610852 15.560309
44   2 0.0000 17.893048 16.481390 20.757541
45   2 0.0000  9.281894 13.621065  5.165847
46   2 0.0000 12.151968 16.491603 10.363078
47   2 0.0000 15.022042 19.362141 15.560309
48   2 0.0000 17.892116 22.232680 20.757541
49   2 0.0000  6.434166  2.097542  2.567231
50   2 0.0000  9.304240  4.968080  7.764462
51   2 0.0000 12.174314  7.838618 12.961694
52   2 0.0000 15.044388 10.709157 18.158925
53   2 0.0000  6.433234  7.848831  2.567231
54   2 0.0000  9.303308 10.719370  7.764462
55   2 0.0000 12.173382 13.589908 12.961694
56   2 0.0000 15.043456 16.460447 18.158925
57   2 0.0000 12.185456  2.097542  2.567231
58   2 0.0000 15.055530  4.968080  7.764462
59   2 0.0000 17.925604  7.838618 12.961694
60   2 0.0000 20.795678 10.709157 18.158925
61   2 0.0000 12.184524  7.848831  2.567231
62   2 0.0000 15.054598 10.719370  7.764462
63   2 0.0000 17.924672 13.589908 12.961694
64   2 0.0000 20.794746 16.460447 18.158925
65   3 0.0000  4.982896  3.757655  3.857185
66   3 0.0000  7.852970  6.628193  9.054416
67   3 0.0000 10.723044  9.498732 14.251648
68   3 0.0000 13.593118 12.369270 19.448879
69   3 0.0000  4.981964  9.508945  3.857185
70   3 0.0000  7.852038 12.379483  9.054416
71   3 0.0000 10.722112 15.250021 14.251648
72   3 0.0000 13.592185 18.120560 19.448879
73   3 0.0000 10.734186  3.757655  3.857185
74   3 0.0000 13.604260  6.628193  9.054416
75   3 0.0000 16.474334  9.498732 14.251648
76   3 0.0000 19.344408 12.369270 19.448879
77   3 0.0000 10.733254  9.508945  3.857185
78   3 0.0000 13.603328 12.379483  9.054416
79   3 0.0000 16.473402 15.250021 14.251648
80   3 0.0000 19.343475 18.120560 19.448879
81   3 0.0000  4.751450  6.423784  1.274074
82   3 0.0000  7.621524  9.294322  6.471306
83   3 0.0000 10.491597 12.164861 11.668537
84   3 0.0000 13.361671 15.035399 16.865768
85   3 0.0000  4.750518 12.175074  1.274074
86   3 0.0000  7.620591 15.045612  6.471306
87   3 0.0000 10.490665 17.916150 11.668537
88   3 0.0000 13.360739 20.786689 16.865768
89   3 0.0000 10.502740  6.423784  1.274074
90   3 0.0000 13.372814  9.294322  6.471306
91   3 0.0000 16.242887 12.164861 11.668537
92   3 0.0000 19.112961 15.035399 16.865768
93   3 0.0000 10.501808 12.175074  1.274074
94   3 0.0000 13.371881 15.045612  6.471306
95   3 0.0000 16.241955 17.916150 11.668537
96   3 0.0000 19.112029 20.786689 16.865768
97   3 0.0000  2.321811  3.548235  1.258570
98   3 0.0000  5.191885  6.418774  6.455801
99   3 0.0000  8.061959  9.289312 11.653032
100  3 0.0000 10.932032 12.159851 16.850263
101  3 0.0000  2.320879  9.299525  1.258570
102  3 0.0000  5.190953 12.170063  6.455801
103  3 0.0000  8.061026 15.040602 11.653032
104  3 0.0000 10.931100 17.911140 16.850263
105  3 0.0000  8.073101  3.548235  1.258570
106  3 0.0000 10.943175  6.418774  6.455801
107  3 0.0000 13.813249  9.289312 11.653032
108  3 0.0000 16.683322 12.159851 16.850263
109  3 0.0000  8.072169  9.299525  1.258570
110  3 0.0000 10.942243 12.170063  6.455801
111  3 0.0000 13.812316 15.040602 11.653032
112  3 0.0000 16.682390 17.911140 16.850263
113  3 0.0000  7.858051  6.187760  3.872690
114  3 0.0000 10.728125  9.058298  9.069921
115  3 0.0000 13.598199 11.928836 14.267152
116  3 0.0000 16.468272 14.799375 19.464384
117  3 0.0000  7.857119 11.939049  3.872690
118  3 0.0000 10.727193 14.809588  9.069921
119  3 0.0000 13.597267 17.680126 14.267152
120  3 0.0000 16.467340 20.550665 19.464384
121  3 0.0000 13.609341  6.187760  3.872690
122  3 0.0000 16.479415  9.058298  9.069921
123  3 0.0000 19.349489 11.928836 14.267152
124  3 0.0000 22.219562 14.799375 19.464384
125  3 0.0000 13.608409 11.939049  3.872690
126  3 0.0000 16.478483 14.809588  9.069921
127  3 0.0000 19.348557 17.680126 14.267152
128  3 0.0000 22.218630 20.550665 19.464384

