Generated by pymatgen.io.lammps.data.LammpsData

960  atoms

  2  atom types

0.000000 20.711819  xlo xhi
0.000000 17.025955  ylo yhi
0.000000 23.798654  zlo zhi
11.793905 17.690858 9.266166  xy xz yz

Masses

1  26.981539
2  15.999400

Atoms

1    1 0.0000  7.175471  3.758388  2.569870
2    1 0.0000 10.123947  5.302749  6.536312
3    1 0.0000 13.072424  6.847110 10.502755
4    1 0.0000 16.020900  8.391471 14.469197
5    1 0.0000 18.969376  9.935832 18.435639
6    1 0.0000 21.917852 11.480193 22.402082
7    1 0.0000 10.123947  8.014877  2.569870
8    1 0.0000 13.072424  9.559238  6.536312
9    1 0.0000 16.020900 11.103599 10.502755
10   1 0.0000 18.969376 12.647960 14.469197
11   1 0.0000 21.917852 14.192321 18.435639
12   1 0.0000 24.866329 15.736682 22.402082
13   1 0.0000 13.072424 12.271366  2.569870
14   1 0.0000 16.020900 13.815727  6.536312
15   1 0.0000 18.969376 15.360088 10.502755
16   1 0.0000 21.917853 16.904449 14.469197
17   1 0.0000 24.866329 18.448810 18.435639
18   1 0.0000 27.814805 19.993171 22.402082
19   1 0.0000 16.020900 16.527855  2.569870
20   1 0.0000 18.969376 18.072216  6.536312
21   1 0.0000 21.917853 19.616577 10.502755
22   1 0.0000 24.866329 21.160938 14.469197
23   1 0.0000 27.814805 22.705299 18.435639
24   1 0.0000 30.763282 24.249660 22.402082
25   1 0.0000 12.353426  3.758388  2.569870
26   1 0.0000 15.301902  5.302749  6.536312
27   1 0.0000 18.250378  6.847110 10.502755
28   1 0.0000 21.198855  8.391471 14.469197
29   1 0.0000 24.147331  9.935832 18.435639
30   1 0.0000 27.095807 11.480193 22.402082
31   1 0.0000 15.301902  8.014877  2.569870
32   1 0.0000 18.250378  9.559238  6.536312
33   1 0.0000 21.198855 11.103599 10.502755
34   1 0.0000 24.147331 12.647960 14.469197
35   1 0.0000 27.095807 14.192321 18.435639
36   1 0.0000 30.044284 15.736682 22.402082
37   1 0.0000 18.250378 12.271366  2.569870
38   1 0.0000 21.198855 13.815727  6.536312
39   1 0.0000 24.147331 15.360088 10.502755
40   1 0.0000 27.095807 16.904449 14.469197
41   1 0.0000 30.044284 18.448810 18.435639
42   1 0.0000 32.992760 19.993171 22.402082
43   1 0.0000 21.198855 16.527855  2.569870
44   1 0.0000 24.147331 18.072216  6.536312
45   1 0.0000 27.095807 19.616577 10.502755
46   1 0.0000 30.044284 21.160938 14.469197
47   1 0.0000 32.992760 22.705299 18.435639
48   1 0.0000 35.941236 24.249660 22.402082
49   1 0.0000 17.531380  3.758388  2.569870
50   1 0.0000 20.479857  5.302749  6.536312
51   1 0.0000 23.428333  6.847110 10.502755
52   1 0.0000 26.376809  8.391471 14.469197
53   1 0.0000 29.325286  9.935832 18.435639
54   1 0.0000 32.273762 11.480193 22.402082
55   1 0.0000 20.479857  8.014877  2.569870
56   1 0.0000 23.428333  9.559238  6.536312
57   1 0.0000 26.376809 11.103599 10.502755
58   1 0.0000 29.325286 12.647960 14.469197
59   1 0.0000 32.273762 14.192321 18.435639
60   1 0.0000 35.222238 15.736682 22.402082
61   1 0.0000 23.428333 12.271366  2.569870
62   1 0.0000 26.376809 13.815727  6.536312
63   1 0.0000 29.325286 15.360088 10.502755
64   1 0.0000 32.273762 16.904449 14.469197
65   1 0.0000 35.222238 18.448810 18.435639
66   1 0.0000 38.170715 19.993171 22.402082
67   1 0.0000 26.376810 16.527855  2.569870
68   1 0.0000 29.325286 18.072216  6.536312
69   1 0.0000 32.273762 19.616577 10.502755
70   1 0.0000 35.222238 21.160938 14.469197
71   1 0.0000 38.170715 22.705299 18.435639
72   1 0.0000 41.119191 24.249660 22.402082
73   1 0.0000 22.709335  3.758388  2.569870
74   1 0.0000 25.657812  5.302749  6.536312
75   1 0.0000 28.606288  6.847110 10.502755
76   1 0.0000 31.554764  8.391471 14.469197
77   1 0.0000 34.503240  9.935832 18.435639
78   1 0.0000 37.451717 11.480193 22.402082
79   1 0.0000 25.657812  8.014877  2.569870
80   1 0.0000 28.606288  9.559238  6.536312
81   1 0.0000 31.554764 11.103599 10.502755
82   1 0.0000 34.503240 12.647960 14.469197
83   1 0.0000 37.451717 14.192321 18.435639
84   1 0.0000 40.400193 15.736682 22.402082
85   1 0.0000 28.606288 12.271366  2.569870
86   1 0.0000 31.554764 13.815727  6.536312
87   1 0.0000 34.503241 15.360088 10.502755
88   1 0.0000 37.451717 16.904449 14.469197
89   1 0.0000 40.400193 18.448810 18.435639
90   1 0.0000 43.348669 19.993171 22.402082
91   1 0.0000 31.554764 16.527855  2.569870
92   1 0.0000 34.503241 18.072216  6.536312
93   1 0.0000 37.451717 19.616577 10.502755
94   1 0.0000 40.400193 21.160938 14.469197
95   1 0.0000 43.348669 22.705299 18.435639
96   1 0.0000 46.297146 24.249660 22.402082
97   1 0.0000  9.436895  4.942887  3.379794
98   1 0.0000 12.385372  6.487248  7.346236
99   1 0.0000 15.333848  8.031609 11.312678
100  1 0.0000 18.282324  9.575970 15.279121
101  1 0.0000 21.230801 11.120331 19.245563
102  1 0.0000 24.179277 12.664692 23.212005
103  1 0.0000 12.385372  9.199376  3.379794
104  1 0.0000 15.333848 10.743737  7.346236
105  1 0.0000 18.282324 12.288098 11.312678
106  1 0.0000 21.230801 13.832459 15.279121
107  1 0.0000 24.179277 15.376820 19.245563
108  1 0.0000 27.127753 16.921181 23.212005
109  1 0.0000 15.333848 13.455864  3.379794
110  1 0.0000 18.282324 15.000226  7.346236
111  1 0.0000 21.230801 16.544587 11.312678
112  1 0.0000 24.179277 18.088948 15.279121
113  1 0.0000 27.127753 19.633309 19.245563
114  1 0.0000 30.076230 21.177670 23.212005
115  1 0.0000 18.282324 17.712353  3.379794
116  1 0.0000 21.230801 19.256714  7.346236
117  1 0.0000 24.179277 20.801075 11.312678
118  1 0.0000 27.127753 22.345437 15.279121
119  1 0.0000 30.076230 23.889798 19.245563
120  1 0.0000 33.024706 25.434159 23.212005
121  1 0.0000 14.614850  4.942887  3.379794
122  1 0.0000 17.563326  6.487248  7.346236
123  1 0.0000 20.511803  8.031609 11.312678
124  1 0.0000 23.460279  9.575970 15.279121
125  1 0.0000 26.408755 11.120331 19.245563
126  1 0.0000 29.357232 12.664692 23.212005
127  1 0.0000 17.563327  9.199376  3.379794
128  1 0.0000 20.511803 10.743737  7.346236
129  1 0.0000 23.460279 12.288098 11.312678
130  1 0.0000 26.408755 13.832459 15.279121
131  1 0.0000 29.357232 15.376820 19.245563
132  1 0.0000 32.305708 16.921181 23.212005
133  1 0.0000 20.511803 13.455864  3.379794
134  1 0.0000 23.460279 15.000226  7.346236
135  1 0.0000 26.408755 16.544587 11.312678
136  1 0.0000 29.357232 18.088948 15.279121
137  1 0.0000 32.305708 19.633309 19.245563
138  1 0.0000 35.254184 21.177670 23.212005
139  1 0.0000 23.460279 17.712353  3.379794
140  1 0.0000 26.408756 19.256714  7.346236
141  1 0.0000 29.357232 20.801075 11.312678
142  1 0.0000 32.305708 22.345437 15.279121
143  1 0.0000 35.254184 23.889798 19.245563
144  1 0.0000 38.202661 25.434159 23.212005
145  1 0.0000 19.792805  4.942887  3.379794
146  1 0.0000 22.741281  6.487248  7.346236
147  1 0.0000 25.689758  8.031609 11.312678
148  1 0.0000 28.638234  9.575970 15.279121
149  1 0.0000 31.586710 11.120331 19.245563
150  1 0.0000 34.535186 12.664692 23.212005
151  1 0.0000 22.741281  9.199376  3.379794
152  1 0.0000 25.689758 10.743737  7.346236
153  1 0.0000 28.638234 12.288098 11.312678
154  1 0.0000 31.586710 13.832459 15.279121
155  1 0.0000 34.535186 15.376820 19.245563
156  1 0.0000 37.483663 16.921181 23.212005
157  1 0.0000 25.689758 13.455864  3.379794
158  1 0.0000 28.638234 15.000226  7.346236
159  1 0.0000 31.586710 16.544587 11.312678
160  1 0.0000 34.535187 18.088948 15.279121
161  1 0.0000 37.483663 19.633309 19.245563
162  1 0.0000 40.432139 21.177670 23.212005
163  1 0.0000 28.638234 17.712353  3.379794
164  1 0.0000 31.586710 19.256714  7.346236
165  1 0.0000 34.535187 20.801075 11.312678
166  1 0.0000 37.483663 22.345437 15.279121
167  1 0.0000 40.432139 23.889798 19.245563
168  1 0.0000 43.380615 25.434159 23.212005
169  1 0.0000 24.970760  4.942887  3.379794
170  1 0.0000 27.919236  6.487248  7.346236
171  1 0.0000 30.867712  8.031609 11.312678
172  1 0.0000 33.816189  9.575970 15.279121
173  1 0.0000 36.764665 11.120331 19.245563
174  1 0.0000 39.713141 12.664692 23.212005
175  1 0.0000 27.919236  9.199376  3.379794
176  1 0.0000 30.867712 10.743737  7.346236
177  1 0.0000 33.816189 12.288098 11.312678
178  1 0.0000 36.764665 13.832459 15.279121
179  1 0.0000 39.713141 15.376820 19.245563
180  1 0.0000 42.661618 16.921181 23.212005
181  1 0.0000 30.867712 13.455864  3.379794
182  1 0.0000 33.816189 15.000226  7.346236
183  1 0.0000 36.764665 16.544587 11.312678
184  1 0.0000 39.713141 18.088948 15.279121
185  1 0.0000 42.661618 19.633309 19.245563
186  1 0.0000 45.610094 21.177670 23.212005
187  1 0.0000 33.816189 17.712353  3.379794
188  1 0.0000 36.764665 19.256714  7.346236
189  1 0.0000 39.713141 20.801075 11.312678
190  1 0.0000 42.661618 22.345437 15.279121
191  1 0.0000 45.610094 23.889798 19.245563
192  1 0.0000 48.558570 25.434159 23.212005
193  1 0.0000  1.638017  0.857963  0.586649
194  1 0.0000  4.586494  2.402324  4.553091
195  1 0.0000  7.534970  3.946685  8.519533
196  1 0.0000 10.483446  5.491046 12.485976
197  1 0.0000 13.431922  7.035407 16.452418
198  1 0.0000 16.380399  8.579768 20.418861
199  1 0.0000  4.586494  5.114452  0.586649
200  1 0.0000  7.534970  6.658813  4.553091
201  1 0.0000 10.483446  8.203174  8.519533
202  1 0.0000 13.431922  9.747535 12.485976
203  1 0.0000 16.380399 11.291896 16.452418
204  1 0.0000 19.328875 12.836257 20.418861
205  1 0.0000  7.534970  9.370941  0.586649
206  1 0.0000 10.483446 10.915302  4.553091
207  1 0.0000 13.431923 12.459663  8.519533
208  1 0.0000 16.380399 14.004024 12.485976
209  1 0.0000 19.328875 15.548385 16.452418
210  1 0.0000 22.277351 17.092746 20.418861
211  1 0.0000 10.483446 13.627430  0.586649
212  1 0.0000 13.431923 15.171791  4.553091
213  1 0.0000 16.380399 16.716152  8.519533
214  1 0.0000 19.328875 18.260513 12.485976
215  1 0.0000 22.277351 19.804874 16.452418
216  1 0.0000 25.225828 21.349235 20.418861
217  1 0.0000  6.815972  0.857963  0.586649
218  1 0.0000  9.764448  2.402324  4.553091
219  1 0.0000 12.712925  3.946685  8.519533
220  1 0.0000 15.661401  5.491046 12.485976
221  1 0.0000 18.609877  7.035407 16.452418
222  1 0.0000 21.558353  8.579768 20.418861
223  1 0.0000  9.764448  5.114452  0.586649
224  1 0.0000 12.712925  6.658813  4.553091
225  1 0.0000 15.661401  8.203174  8.519533
226  1 0.0000 18.609877  9.747535 12.485976
227  1 0.0000 21.558354 11.291896 16.452418
228  1 0.0000 24.506830 12.836257 20.418861
229  1 0.0000 12.712925  9.370941  0.586649
230  1 0.0000 15.661401 10.915302  4.553091
231  1 0.0000 18.609877 12.459663  8.519533
232  1 0.0000 21.558354 14.004024 12.485976
233  1 0.0000 24.506830 15.548385 16.452418
234  1 0.0000 27.455306 17.092746 20.418861
235  1 0.0000 15.661401 13.627430  0.586649
236  1 0.0000 18.609877 15.171791  4.553091
237  1 0.0000 21.558354 16.716152  8.519533
238  1 0.0000 24.506830 18.260513 12.485976
239  1 0.0000 27.455306 19.804874 16.452418
240  1 0.0000 30.403783 21.349235 20.418861
241  1 0.0000 11.993927  0.857963  0.586649
242  1 0.0000 14.942403  2.402324  4.553091
243  1 0.0000 17.890879  3.946685  8.519533
244  1 0.0000 20.839356  5.491046 12.485976
245  1 0.0000 23.787832  7.035407 16.452418
246  1 0.0000 26.736308  8.579768 20.418861
247  1 0.0000 14.942403  5.114452  0.586649
248  1 0.0000 17.890879  6.658813  4.553091
249  1 0.0000 20.839356  8.203174  8.519533
250  1 0.0000 23.787832  9.747535 12.485976
251  1 0.0000 26.736308 11.291896 16.452418
252  1 0.0000 29.684785 12.836257 20.418861
253  1 0.0000 17.890879  9.370941  0.586649
254  1 0.0000 20.839356 10.915302  4.553091
255  1 0.0000 23.787832 12.459663  8.519533
256  1 0.0000 26.736308 14.004024 12.485976
257  1 0.0000 29.684785 15.548385 16.452418
258  1 0.0000 32.633261 17.092746 20.418861
259  1 0.0000 20.839356 13.627430  0.586649
260  1 0.0000 23.787832 15.171791  4.553091
261  1 0.0000 26.736308 16.716152  8.519533
262  1 0.0000 29.684785 18.260513 12.485976
263  1 0.0000 32.633261 19.804874 16.452418
264  1 0.0000 35.581737 21.349235 20.418861
265  1 0.0000 17.171881  0.857963  0.586649
266  1 0.0000 20.120358  2.402324  4.553091
267  1 0.0000 23.068834  3.946685  8.519533
268  1 0.0000 26.017310  5.491046 12.485976
269  1 0.0000 28.965787  7.035407 16.452418
270  1 0.0000 31.914263  8.579768 20.418861
271  1 0.0000 20.120358  5.114452  0.586649
272  1 0.0000 23.068834  6.658813  4.553091
273  1 0.0000 26.017310  8.203174  8.519533
274  1 0.0000 28.965787  9.747535 12.485976
275  1 0.0000 31.914263 11.291896 16.452418
276  1 0.0000 34.862739 12.836257 20.418861
277  1 0.0000 23.068834  9.370941  0.586649
278  1 0.0000 26.017311 10.915302  4.553091
279  1 0.0000 28.965787 12.459663  8.519533
280  1 0.0000 31.914263 14.004024 12.485976
281  1 0.0000 34.862739 15.548385 16.452418
282  1 0.0000 37.811216 17.092746 20.418861
283  1 0.0000 26.017311 13.627430  0.586649
284  1 0.0000 28.965787 15.171791  4.553091
285  1 0.0000 31.914263 16.716152  8.519533
286  1 0.0000 34.862739 18.260513 12.485976
287  1 0.0000 37.811216 19.804874 16.452418
288  1 0.0000 40.759692 21.349235 20.418861
289  1 0.0000  3.899436  2.042456  1.396568
290  1 0.0000  6.847912  3.586817  5.363011
291  1 0.0000  9.796388  5.131178  9.329453
292  1 0.0000 12.744865  6.675539 13.295896
293  1 0.0000 15.693341  8.219900 17.262338
294  1 0.0000 18.641817  9.764261 21.228780
295  1 0.0000  6.847912  6.298945  1.396568
296  1 0.0000  9.796388  7.843306  5.363011
297  1 0.0000 12.744865  9.387667  9.329453
298  1 0.0000 15.693341 10.932028 13.295896
299  1 0.0000 18.641817 12.476389 17.262338
300  1 0.0000 21.590294 14.020750 21.228780
301  1 0.0000  9.796388 10.555434  1.396568
302  1 0.0000 12.744865 12.099795  5.363011
303  1 0.0000 15.693341 13.644156  9.329453
304  1 0.0000 18.641817 15.188517 13.295896
305  1 0.0000 21.590294 16.732878 17.262338
306  1 0.0000 24.538770 18.277239 21.228780
307  1 0.0000 12.744865 14.811923  1.396568
308  1 0.0000 15.693341 16.356284  5.363011
309  1 0.0000 18.641817 17.900645  9.329453
310  1 0.0000 21.590294 19.445006 13.295896
311  1 0.0000 24.538770 20.989367 17.262338
312  1 0.0000 27.487246 22.533728 21.228780
313  1 0.0000  9.077391  2.042456  1.396568
314  1 0.0000 12.025867  3.586817  5.363011
315  1 0.0000 14.974343  5.131178  9.329453
316  1 0.0000 17.922819  6.675539 13.295896
317  1 0.0000 20.871296  8.219900 17.262338
318  1 0.0000 23.819772  9.764261 21.228780
319  1 0.0000 12.025867  6.298945  1.396568
320  1 0.0000 14.974343  7.843306  5.363011
321  1 0.0000 17.922820  9.387667  9.329453
322  1 0.0000 20.871296 10.932028 13.295896
323  1 0.0000 23.819772 12.476389 17.262338
324  1 0.0000 26.768248 14.020750 21.228780
325  1 0.0000 14.974343 10.555434  1.396568
326  1 0.0000 17.922820 12.099795  5.363011
327  1 0.0000 20.871296 13.644156  9.329453
328  1 0.0000 23.819772 15.188517 13.295896
329  1 0.0000 26.768248 16.732878 17.262338
330  1 0.0000 29.716725 18.277239 21.228780
331  1 0.0000 17.922820 14.811923  1.396568
332  1 0.0000 20.871296 16.356284  5.363011
333  1 0.0000 23.819772 17.900645  9.329453
334  1 0.0000 26.768249 19.445006 13.295896
335  1 0.0000 29.716725 20.989367 17.262338
336  1 0.0000 32.665201 22.533728 21.228780
337  1 0.0000 14.255345  2.042456  1.396568
338  1 0.0000 17.203822  3.586817  5.363011
339  1 0.0000 20.152298  5.131178  9.329453
340  1 0.0000 23.100774  6.675539 13.295896
341  1 0.0000 26.049251  8.219900 17.262338
342  1 0.0000 28.997727  9.764261 21.228780
343  1 0.0000 17.203822  6.298945  1.396568
344  1 0.0000 20.152298  7.843306  5.363011
345  1 0.0000 23.100774  9.387667  9.329453
346  1 0.0000 26.049251 10.932028 13.295896
347  1 0.0000 28.997727 12.476389 17.262338
348  1 0.0000 31.946203 14.020750 21.228780
349  1 0.0000 20.152298 10.555434  1.396568
350  1 0.0000 23.100774 12.099795  5.363011
351  1 0.0000 26.049251 13.644156  9.329453
352  1 0.0000 28.997727 15.188517 13.295896
353  1 0.0000 31.946203 16.732878 17.262338
354  1 0.0000 34.894680 18.277239 21.228780
355  1 0.0000 23.100774 14.811923  1.396568
356  1 0.0000 26.049251 16.356284  5.363011
357  1 0.0000 28.997727 17.900645  9.329453
358  1 0.0000 31.946203 19.445006 13.295896
359  1 0.0000 34.894680 20.989367 17.262338
360  1 0.0000 37.843156 22.533728 21.228780
361  1 0.0000 19.433300  2.042456  1.396568
362  1 0.0000 22.381776  3.586817  5.363011
363  1 0.0000 25.330253  5.131178  9.329453
364  1 0.0000 28.278729  6.675539 13.295896
365  1 0.0000 31.227205  8.219900 17.262338
366  1 0.0000 34.175682  9.764261 21.228780
367  1 0.0000 22.381776  6.298945  1.396568
368  1 0.0000 25.330253  7.843306  5.363011
369  1 0.0000 28.278729  9.387667  9.329453
370  1 0.0000 31.227205 10.932028 13.295896
371  1 0.0000 34.175682 12.476389 17.262338
372  1 0.0000 37.124158 14.020750 21.228780
373  1 0.0000 25.330253 10.555434  1.396568
374  1 0.0000 28.278729 12.099795  5.363011
375  1 0.0000 31.227205 13.644156  9.329453
376  1 0.0000 34.175682 15.188517 13.295896
377  1 0.0000 37.124158 16.732878 17.262338
378  1 0.0000 40.072634 18.277239 21.228780
379  1 0.0000 28.278729 14.811923  1.396568
380  1 0.0000 31.227205 16.356284  5.363011
381  1 0.0000 34.175682 17.900645  9.329453
382  1 0.0000 37.124158 19.445006 13.295896
383  1 0.0000 40.072634 20.989367 17.262338
384  1 0.0000 43.021111 22.533728 21.228780
385  2 0.0000  4.675163  1.397253  2.974836
386  2 0.0000  7.623640  2.941614  6.941278
387  2 0.0000 10.572116  4.485975 10.907720
388  2 0.0000 13.520592  6.030336 14.874163
389  2 0.0000 16.469069  7.574697 18.840605
390  2 0.0000 19.417545  9.119058 22.807048
391  2 0.0000  7.623640  5.653742  2.974836
392  2 0.0000 10.572116  7.198103  6.941278
393  2 0.0000 13.520592  8.742464 10.907720
394  2 0.0000 16.469069 10.286825 14.874163
395  2 0.0000 19.417545 11.831186 18.840605
396  2 0.0000 22.366021 13.375547 22.807048
397  2 0.0000 10.572116  9.910231  2.974836
398  2 0.0000 13.520593 11.454592  6.941278
399  2 0.0000 16.469069 12.998953 10.907720
400  2 0.0000 19.417545 14.543314 14.874163
401  2 0.0000 22.366021 16.087675 18.840605
402  2 0.0000 25.314498 17.632036 22.807048
403  2 0.0000 13.520593 14.166719  2.974836
404  2 0.0000 16.469069 15.711080  6.941278
405  2 0.0000 19.417545 17.255442 10.907720
406  2 0.0000 22.366021 18.799803 14.874163
407  2 0.0000 25.314498 20.344164 18.840605
408  2 0.0000 28.262974 21.888525 22.807048
409  2 0.0000  9.853118  1.397253  2.974836
410  2 0.0000 12.801595  2.941614  6.941278
411  2 0.0000 15.750071  4.485975 10.907720
412  2 0.0000 18.698547  6.030336 14.874163
413  2 0.0000 21.647023  7.574697 18.840605
414  2 0.0000 24.595500  9.119058 22.807048
415  2 0.0000 12.801595  5.653742  2.974836
416  2 0.0000 15.750071  7.198103  6.941278
417  2 0.0000 18.698547  8.742464 10.907720
418  2 0.0000 21.647024 10.286825 14.874163
419  2 0.0000 24.595500 11.831186 18.840605
420  2 0.0000 27.543976 13.375547 22.807048
421  2 0.0000 15.750071  9.910231  2.974836
422  2 0.0000 18.698547 11.454592  6.941278
423  2 0.0000 21.647024 12.998953 10.907720
424  2 0.0000 24.595500 14.543314 14.874163
425  2 0.0000 27.543976 16.087675 18.840605
426  2 0.0000 30.492452 17.632036 22.807048
427  2 0.0000 18.698547 14.166719  2.974836
428  2 0.0000 21.647024 15.711080  6.941278
429  2 0.0000 24.595500 17.255442 10.907720
430  2 0.0000 27.543976 18.799803 14.874163
431  2 0.0000 30.492453 20.344164 18.840605
432  2 0.0000 33.440929 21.888525 22.807048
433  2 0.0000 15.031073  1.397253  2.974836
434  2 0.0000 17.979549  2.941614  6.941278
435  2 0.0000 20.928026  4.485975 10.907720
436  2 0.0000 23.876502  6.030336 14.874163
437  2 0.0000 26.824978  7.574697 18.840605
438  2 0.0000 29.773455  9.119058 22.807048
439  2 0.0000 17.979549  5.653742  2.974836
440  2 0.0000 20.928026  7.198103  6.941278
441  2 0.0000 23.876502  8.742464 10.907720
442  2 0.0000 26.824978 10.286825 14.874163
443  2 0.0000 29.773455 11.831186 18.840605
444  2 0.0000 32.721931 13.375547 22.807048
445  2 0.0000 20.928026  9.910231  2.974836
446  2 0.0000 23.876502 11.454592  6.941278
447  2 0.0000 26.824978 12.998953 10.907720
448  2 0.0000 29.773455 14.543314 14.874163
449  2 0.0000 32.721931 16.087675 18.840605
450  2 0.0000 35.670407 17.632036 22.807048
451  2 0.0000 23.876502 14.166719  2.974836
452  2 0.0000 26.824978 15.711080  6.941278
453  2 0.0000 29.773455 17.255442 10.907720
454  2 0.0000 32.721931 18.799803 14.874163
455  2 0.0000 35.670407 20.344164 18.840605
456  2 0.0000 38.618884 21.888525 22.807048
457  2 0.0000 20.209028  1.397253  2.974836
458  2 0.0000 23.157504  2.941614  6.941278
459  2 0.0000 26.105980  4.485975 10.907720
460  2 0.0000 29.054457  6.030336 14.874163
461  2 0.0000 32.002933  7.574697 18.840605
462  2 0.0000 34.951409  9.119058 22.807048
463  2 0.0000 23.157504  5.653742  2.974836
464  2 0.0000 26.105980  7.198103  6.941278
465  2 0.0000 29.054457  8.742464 10.907720
466  2 0.0000 32.002933 10.286825 14.874163
467  2 0.0000 34.951409 11.831186 18.840605
468  2 0.0000 37.899886 13.375547 22.807048
469  2 0.0000 26.105980  9.910231  2.974836
470  2 0.0000 29.054457 11.454592  6.941278
471  2 0.0000 32.002933 12.998953 10.907720
472  2 0.0000 34.951409 14.543314 14.874163
473  2 0.0000 37.899886 16.087675 18.840605
474  2 0.0000 40.848362 17.632036 22.807048
475  2 0.0000 29.054457 14.166719  2.974836
476  2 0.0000 32.002933 15.711080  6.941278
477  2 0.0000 34.951409 17.255442 10.907720
478  2 0.0000 37.899886 18.799803 14.874163
479  2 0.0000 40.848362 20.344164 18.840605
480  2 0.0000 43.796838 21.888525 22.807048
481  2 0.0000  7.264141  1.923015  2.205917
482  2 0.0000 10.212617  3.467376  6.172359
483  2 0.0000 13.161093  5.011737 10.138802
484  2 0.0000 16.109570  6.556098 14.105244
485  2 0.0000 19.058046  8.100459 18.071687
486  2 0.0000 22.006522  9.644821 22.038129
487  2 0.0000 10.212617  6.179504  2.205917
488  2 0.0000 13.161094  7.723865  6.172359
489  2 0.0000 16.109570  9.268226 10.138802
490  2 0.0000 19.058046 10.812587 14.105244
491  2 0.0000 22.006522 12.356948 18.071687
492  2 0.0000 24.954999 13.901309 22.038129
493  2 0.0000 13.161094 10.435993  2.205917
494  2 0.0000 16.109570 11.980354  6.172359
495  2 0.0000 19.058046 13.524715 10.138802
496  2 0.0000 22.006523 15.069076 14.105244
497  2 0.0000 24.954999 16.613437 18.071687
498  2 0.0000 27.903475 18.157798 22.038129
499  2 0.0000 16.109570 14.692482  2.205917
500  2 0.0000 19.058046 16.236843  6.172359
501  2 0.0000 22.006523 17.781204 10.138802
502  2 0.0000 24.954999 19.325565 14.105244
503  2 0.0000 27.903475 20.869926 18.071687
504  2 0.0000 30.851951 22.414287 22.038129
505  2 0.0000 12.442096  1.923015  2.205917
506  2 0.0000 15.390572  3.467376  6.172359
507  2 0.0000 18.339048  5.011737 10.138802
508  2 0.0000 21.287525  6.556098 14.105244
509  2 0.0000 24.236001  8.100459 18.071687
510  2 0.0000 27.184477  9.644821 22.038129
511  2 0.0000 15.390572  6.179504  2.205917
512  2 0.0000 18.339048  7.723865  6.172359
513  2 0.0000 21.287525  9.268226 10.138802
514  2 0.0000 24.236001 10.812587 14.105244
515  2 0.0000 27.184477 12.356948 18.071687
516  2 0.0000 30.132954 13.901309 22.038129
517  2 0.0000 18.339048 10.435993  2.205917
518  2 0.0000 21.287525 11.980354  6.172359
519  2 0.0000 24.236001 13.524715 10.138802
520  2 0.0000 27.184477 15.069076 14.105244
521  2 0.0000 30.132954 16.613437 18.071687
522  2 0.0000 33.081430 18.157798 22.038129
523  2 0.0000 21.287525 14.692482  2.205917
524  2 0.0000 24.236001 16.236843  6.172359
525  2 0.0000 27.184477 17.781204 10.138802
526  2 0.0000 30.132954 19.325565 14.105244
527  2 0.0000 33.081430 20.869926 18.071687
528  2 0.0000 36.029906 22.414287 22.038129
529  2 0.0000 17.620050  1.923015  2.205917
530  2 0.0000 20.568527  3.467376  6.172359
531  2 0.0000 23.517003  5.011737 10.138802
532  2 0.0000 26.465479  6.556098 14.105244
533  2 0.0000 29.413956  8.100459 18.071687
534  2 0.0000 32.362432  9.644821 22.038129
535  2 0.0000 20.568527  6.179504  2.205917
536  2 0.0000 23.517003  7.723865  6.172359
537  2 0.0000 26.465479  9.268226 10.138802
538  2 0.0000 29.413956 10.812587 14.105244
539  2 0.0000 32.362432 12.356948 18.071687
540  2 0.0000 35.310908 13.901309 22.038129
541  2 0.0000 23.517003 10.435993  2.205917
542  2 0.0000 26.465479 11.980354  6.172359
543  2 0.0000 29.413956 13.524715 10.138802
544  2 0.0000 32.362432 15.069076 14.105244
545  2 0.0000 35.310908 16.613437 18.071687
546  2 0.0000 38.259385 18.157798 22.038129
547  2 0.0000 26.465479 14.692482  2.205917
548  2 0.0000 29.413956 16.236843  6.172359
549  2 0.0000 32.362432 17.781204 10.138802
550  2 0.0000 35.310908 19.325565 14.105244
551  2 0.0000 38.259385 20.869926 18.071687
552  2 0.0000 41.207861 22.414287 22.038129
553  2 0.0000 22.798005  1.923015  2.205917
554  2 0.0000 25.746481  3.467376  6.172359
555  2 0.0000 28.694958  5.011737 10.138802
556  2 0.0000 31.643434  6.556098 14.105244
557  2 0.0000 34.591910  8.100459 18.071687
558  2 0.0000 37.540387  9.644821 22.038129
559  2 0.0000 25.746482  6.179504  2.205917
560  2 0.0000 28.694958  7.723865  6.172359
561  2 0.0000 31.643434  9.268226 10.138802
562  2 0.0000 34.591910 10.812587 14.105244
563  2 0.0000 37.540387 12.356948 18.071687
564  2 0.0000 40.488863 13.901309 22.038129
565  2 0.0000 28.694958 10.435993  2.205917
566  2 0.0000 31.643434 11.980354  6.172359
567  2 0.0000 34.591910 13.524715 10.138802
568  2 0.0000 37.540387 15.069076 14.105244
569  2 0.0000 40.488863 16.613437 18.071687
570  2 0.0000 43.437339 18.157798 22.038129
571  2 0.0000 31.643434 14.692482  2.205917
572  2 0.0000 34.591911 16.236843  6.172359
573  2 0.0000 37.540387 17.781204 10.138802
574  2 0.0000 40.488863 19.325565 14.105244
575  2 0.0000 43.437339 20.869926 18.071687
576  2 0.0000 46.385816 22.414287 22.038129
577  2 0.0000  3.810764  3.877839  1.760525
578  2 0.0000  6.759241  5.422200  5.726968
579  2 0.0000  9.707717  6.966561  9.693410
580  2 0.0000 12.656193  8.510922 13.659852
581  2 0.0000 15.604670 10.055283 17.626295
582  2 0.0000 18.553146 11.599644 21.592737
583  2 0.0000  6.759241  8.134328  1.760525
584  2 0.0000  9.707717  9.678689  5.726968
585  2 0.0000 12.656193 11.223050  9.693410
586  2 0.0000 15.604670 12.767411 13.659852
587  2 0.0000 18.553146 14.311772 17.626295
588  2 0.0000 21.501622 15.856133 21.592737
589  2 0.0000  9.707717 12.390817  1.760525
590  2 0.0000 12.656193 13.935178  5.726968
591  2 0.0000 15.604670 15.479539  9.693410
592  2 0.0000 18.553146 17.023900 13.659852
593  2 0.0000 21.501622 18.568261 17.626295
594  2 0.0000 24.450099 20.112622 21.592737
595  2 0.0000 12.656193 16.647306  1.760525
596  2 0.0000 15.604670 18.191667  5.726968
597  2 0.0000 18.553146 19.736028  9.693410
598  2 0.0000 21.501622 21.280389 13.659852
599  2 0.0000 24.450099 22.824750 17.626295
600  2 0.0000 27.398575 24.369111 21.592737
601  2 0.0000  8.988719  3.877839  1.760525
602  2 0.0000 11.937195  5.422200  5.726968
603  2 0.0000 14.885672  6.966561  9.693410
604  2 0.0000 17.834148  8.510922 13.659852
605  2 0.0000 20.782624 10.055283 17.626295
606  2 0.0000 23.731101 11.599644 21.592737
607  2 0.0000 11.937195  8.134328  1.760525
608  2 0.0000 14.885672  9.678689  5.726968
609  2 0.0000 17.834148 11.223050  9.693410
610  2 0.0000 20.782624 12.767411 13.659852
611  2 0.0000 23.731101 14.311772 17.626295
612  2 0.0000 26.679577 15.856133 21.592737
613  2 0.0000 14.885672 12.390817  1.760525
614  2 0.0000 17.834148 13.935178  5.726968
615  2 0.0000 20.782624 15.479539  9.693410
616  2 0.0000 23.731101 17.023900 13.659852
617  2 0.0000 26.679577 18.568261 17.626295
618  2 0.0000 29.628053 20.112622 21.592737
619  2 0.0000 17.834148 16.647306  1.760525
620  2 0.0000 20.782624 18.191667  5.726968
621  2 0.0000 23.731101 19.736028  9.693410
622  2 0.0000 26.679577 21.280389 13.659852
623  2 0.0000 29.628053 22.824750 17.626295
624  2 0.0000 32.576530 24.369111 21.592737
625  2 0.0000 14.166674  3.877839  1.760525
626  2 0.0000 17.115150  5.422200  5.726968
627  2 0.0000 20.063626  6.966561  9.693410
628  2 0.0000 23.012103  8.510922 13.659852
629  2 0.0000 25.960579 10.055283 17.626295
630  2 0.0000 28.909055 11.599644 21.592737
631  2 0.0000 17.115150  8.134328  1.760525
632  2 0.0000 20.063626  9.678689  5.726968
633  2 0.0000 23.012103 11.223050  9.693410
634  2 0.0000 25.960579 12.767411 13.659852
635  2 0.0000 28.909055 14.311772 17.626295
636  2 0.0000 31.857532 15.856133 21.592737
637  2 0.0000 20.063627 12.390817  1.760525
638  2 0.0000 23.012103 13.935178  5.726968
639  2 0.0000 25.960579 15.479539  9.693410
640  2 0.0000 28.909055 17.023900 13.659852
641  2 0.0000 31.857532 18.568261 17.626295
642  2 0.0000 34.806008 20.112622 21.592737
643  2 0.0000 23.012103 16.647306  1.760525
644  2 0.0000 25.960579 18.191667  5.726968
645  2 0.0000 28.909056 19.736028  9.693410
646  2 0.0000 31.857532 21.280389 13.659852
647  2 0.0000 34.806008 22.824750 17.626295
648  2 0.0000 37.754484 24.369111 21.592737
649  2 0.0000 19.344629  3.877839  1.760525
650  2 0.0000 22.293105  5.422200  5.726968
651  2 0.0000 25.241581  6.966561  9.693410
652  2 0.0000 28.190058  8.510922 13.659852
653  2 0.0000 31.138534 10.055283 17.626295
654  2 0.0000 34.087010 11.599644 21.592737
655  2 0.0000 22.293105  8.134328  1.760525
656  2 0.0000 25.241581  9.678689  5.726968
657  2 0.0000 28.190058 11.223050  9.693410
658  2 0.0000 31.138534 12.767411 13.659852
659  2 0.0000 34.087010 14.311772 17.626295
660  2 0.0000 37.035486 15.856133 21.592737
661  2 0.0000 25.241581 12.390817  1.760525
662  2 0.0000 28.190058 13.935178  5.726968
663  2 0.0000 31.138534 15.479539  9.693410
664  2 0.0000 34.087010 17.023900 13.659852
665  2 0.0000 37.035487 18.568261 17.626295
666  2 0.0000 39.983963 20.112622 21.592737
667  2 0.0000 28.190058 16.647306  1.760525
668  2 0.0000 31.138534 18.191667  5.726968
669  2 0.0000 34.087010 19.736028  9.693410
670  2 0.0000 37.035487 21.280389 13.659852
671  2 0.0000 39.983963 22.824750 17.626295
672  2 0.0000 42.932439 24.369111 21.592737
673  2 0.0000  5.357709  1.975975  0.222692
674  2 0.0000  8.306186  3.520336  4.189134
675  2 0.0000 11.254662  5.064697  8.155577
676  2 0.0000 14.203138  6.609058 12.122019