Generated by pymatgen.io.lammps.data.LammpsData

160  atoms

  2  atom types

0.000000 10.355910  xlo xhi
0.000000 8.512978  ylo yhi
0.000000 15.865769  zlo zhi
5.896953 11.793905 6.177444  xy xz yz

Masses

1  26.981539
2  15.999400

Atoms

1    1 0.0000  7.175471  3.758388  2.569870
2    1 0.0000 10.123947  5.302749  6.536312
3    1 0.0000 13.072424  6.847110 10.502755
4    1 0.0000 16.020900  8.391471 14.469197
5    1 0.0000 10.123947  8.014877  2.569870
6    1 0.0000 13.072424  9.559238  6.536312
7    1 0.0000 16.020900 11.103599 10.502755
8    1 0.0000 18.969376 12.647960 14.469197
9    1 0.0000 12.353426  3.758388  2.569870
10   1 0.0000 15.301902  5.302749  6.536312
11   1 0.0000 18.250378  6.847110 10.502755
12   1 0.0000 21.198855  8.391471 14.469197
13   1 0.0000 15.301902  8.014877  2.569870
14   1 0.0000 18.250378  9.559238  6.536312
15   1 0.0000 21.198855 11.103599 10.502755
16   1 0.0000 24.147331 12.647960 14.469197
17   1 0.0000  9.436895  4.942887  3.379794
18   1 0.0000 12.385372  6.487248  7.346236
19   1 0.0000 15.333848  8.031609 11.312678
20   1 0.0000 18.282324  9.575970 15.279121
21   1 0.0000 12.385372  9.199376  3.379794
22   1 0.0000 15.333848 10.743737  7.346236
23   1 0.0000 18.282324 12.288098 11.312678
24   1 0.0000 21.230801 13.832459 15.279121
25   1 0.0000 14.614850  4.942887  3.379794
26   1 0.0000 17.563326  6.487248  7.346236
27   1 0.0000 20.511803  8.031609 11.312678
28   1 0.0000 23.460279  9.575970 15.279121
29   1 0.0000 17.563327  9.199376  3.379794
30   1 0.0000 20.511803 10.743737  7.346236
31   1 0.0000 23.460279 12.288098 11.312678
32   1 0.0000 26.408755 13.832459 15.279121
33   1 0.0000  1.638017  0.857963  0.586649
34   1 0.0000  4.586494  2.402324  4.553091
35   1 0.0000  7.534970  3.946685  8.519533
36   1 0.0000 10.483446  5.491046 12.485976
37   1 0.0000  4.586494  5.114452  0.586649
38   1 0.0000  7.534970  6.658813  4.553091
39   1 0.0000 10.483446  8.203174  8.519533
40   1 0.0000 13.431922  9.747535 12.485976
41   1 0.0000  6.815972  0.857963  0.586649
42   1 0.0000  9.764448  2.402324  4.553091
43   1 0.0000 12.712925  3.946685  8.519533
44   1 0.0000 15.661401  5.491046 12.485976
45   1 0.0000  9.764448  5.114452  0.586649
46   1 0.0000 12.712925  6.658813  4.553091
47   1 0.0000 15.661401  8.203174  8.519533
48   1 0.0000 18.609877  9.747535 12.485976
49   1 0.0000  3.899436  2.042456  1.396568
50   1 0.0000  6.847912  3.586817  5.363011
51   1 0.0000  9.796388  5.131178  9.329453
52   1 0.0000 12.744865  6.675539 13.295896
53   1 0.0000  6.847912  6.298945  1.396568
54   1 0.0000  9.796388  7.843306  5.363011
55   1 0.0000 12.744865  9.387667  9.329453
56   1 0.0000 15.693341 10.932028 13.295896
57   1 0.0000  9.077391  2.042456  1.396568
58   1 0.0000 12.025867  3.586817  5.363011
59   1 0.0000 14.974343  5.131178  9.329453
60   1 0.0000 17.922819  6.675539 13.295896
61   1 0.0000 12.025867  6.298945  1.396568
62   1 0.0000 14.974343  7.843306  5.363011
63   1 0.0000 17.922820  9.387667  9.329453
64   1 0.0000 20.871296 10.932028 13.295896
65   2 0.0000  4.675163  1.397253  2.974836
66   2 0.0000  7.623640  2.941614  6.941278
67   2 0.0000 10.572116  4.485975 10.907720
68   2 0.0000 13.520592  6.030336 14.874163
69   2 0.0000  7.623640  5.653742  2.974836
70   2 0.0000 10.572116  7.198103  6.941278
71   2 0.0000 13.520592  8.742464 10.907720
72   2 0.0000 16.469069 10.286825 14.874163
73   2 0.0000  9.853118  1.397253  2.974836
74   2 0.0000 12.801595  2.941614  6.941278
75   2 0.0000 15.750071  4.485975 10.907720
76   2 0.0000 18.698547  6.030336 14.874163
77   2 0.0000 12.801595  5.653742  2.974836
78   2 0.0000 15.750071  7.198103  6.941278
79   2 0.0000 18.698547  8.742464 10.907720
80   2 0.0000 21.647024 10.286825 14.874163
81   2 0.0000  7.264141  1.923015  2.205917
82   2 0.0000 10.212617  3.467376  6.172359
83   2 0.0000 13.161093  5.011737 10.138802
84   2 0.0000 16.109570  6.556098 14.105244
85   2 0.0000 10.212617  6.179504  2.205917
86   2 0.0000 13.161094  7.723865  6.172359
87   2 0.0000 16.109570  9.268226 10.138802
88   2 0.0000 19.058046 10.812587 14.105244
89   2 0.0000 12.442096  1.923015  2.205917
90   2 0.0000 15.390572  3.467376  6.172359
91   2 0.0000 18.339048  5.011737 10.138802
92   2 0.0000 21.287525  6.556098 14.105244
93   2 0.0000 15.390572  6.179504  2.205917
94   2 0.0000 18.339048  7.723865  6.172359
95   2 0.0000 21.287525  9.268226 10.138802
96   2 0.0000 24.236001 10.812587 14.105244
97   2 0.0000  3.810764  3.877839  1.760525
98   2 0.0000  6.759241  5.422200  5.726968
99   2 0.0000  9.707717  6.966561  9.693410
100  2 0.0000 12.656193  8.510922 13.659852
101  2 0.0000  6.759241  8.134328  1.760525
102  2 0.0000  9.707717  9.678689  5.726968
103  2 0.0000 12.656193 11.223050  9.693410
104  2 0.0000 15.604670 12.767411 13.659852
105  2 0.0000  8.988719  3.877839  1.760525
106  2 0.0000 11.937195  5.422200  5.726968
107  2 0.0000 14.885672  6.966561  9.693410
108  2 0.0000 17.834148  8.510922 13.659852
109  2 0.0000 11.937195  8.134328  1.760525
110  2 0.0000 14.885672  9.678689  5.726968
111  2 0.0000 17.834148 11.223050  9.693410
112  2 0.0000 20.782624 12.767411 13.659852
113  2 0.0000  5.357709  1.975975  0.222692
114  2 0.0000  8.306186  3.520336  4.189134
115  2 0.0000 11.254662  5.064697  8.155577
116  2 0.0000 14.203138  6.609058 12.122019
117  2 0.0000  8.306186  6.232464  0.222692
118  2 0.0000 11.254662  7.776825  4.189134
119  2 0.0000 14.203138  9.321186  8.155577
120  2 0.0000 17.151615 10.865547 12.122019
121  2 0.0000 10.535664  1.975975  0.222692
122  2 0.0000 13.484140  3.520336  4.189134
123  2 0.0000 16.432617  5.064697  8.155577
124  2 0.0000 19.381093  6.609058 12.122019
125  2 0.0000 13.484141  6.232464  0.222692
126  2 0.0000 16.432617  7.776825  4.189134
127  2 0.0000 19.381093  9.321186  8.155577
128  2 0.0000 22.329569 10.865547 12.122019
129  2 0.0000  5.717200  3.824874  3.743746
130  2 0.0000  8.665677  5.369235  7.710189
131  2 0.0000 11.614153  6.913596 11.676631
132  2 0.0000 14.562629  8.457957 15.643074
133  2 0.0000  8.665677  8.081362  3.743746
134  2 0.0000 11.614153  9.625724  7.710189
135  2 0.0000 14.562629 11.170085 11.676631
136  2 0.0000 17.511105 12.714446 15.643074
137  2 0.0000 10.895155  3.824874  3.743746
138  2 0.0000 13.843631  5.369235  7.710189
139  2 0.0000 16.792108  6.913596 11.676631
140  2 0.0000 19.740584  8.457957 15.643074
141  2 0.0000 13.843631  8.081362  3.743746
142  2 0.0000 16.792108  9.625724  7.710189
143  2 0.0000 19.740584 11.170085 11.676631
144  2 0.0000 22.689060 12.714446 15.643074
145  2 0.0000  6.399742  4.403601  0.991607
146  2 0.0000  9.348218  5.947962  4.958049
147  2 0.0000 12.296694  7.492323  8.924491
148  2 0.0000 15.245171  9.036684 12.890934
149  2 0.0000  9.348218  8.660090  0.991607
150  2 0.0000 12.296694 10.204451  4.958049
151  2 0.0000 15.245171 11.748812  8.924491
152  2 0.0000 18.193647 13.293173 12.890934
153  2 0.0000 11.577696  4.403601  0.991607
154  2 0.0000 14.526173  5.947962  4.958049
155  2 0.0000 17.474649  7.492323  8.924491
156  2 0.0000 20.423125  9.036684 12.890934
157  2 0.0000 14.526173  8.660090  0.991607
158  2 0.0000 17.474649 10.204451  4.958049
159  2 0.0000 20.423125 11.748812  8.924491
160  2 0.0000 23.371602 13.293173 12.890934

