Generated by pymatgen.io.lammps.data.LammpsData

384  atoms

  2  atom types

0.000000 12.514352  xlo xhi
0.000000 10.837748  ylo yhi
0.000000 30.101730  zlo zhi
-6.257176 0.000000 0.000000  xy xz yz

Masses

1  26.981539
2  14.006700

Atoms

1    1 0.0000  1.564294 0.903146  2.504900
2    1 0.0000  1.564294 0.903146  7.521855
3    1 0.0000  1.564294 0.903146 12.538810
4    1 0.0000  1.564294 0.903146 17.555765
5    1 0.0000  1.564294 0.903146 22.572720
6    1 0.0000  1.564294 0.903146 27.589675
7    1 0.0000  0.000000 3.612583  2.504900
8    1 0.0000  0.000000 3.612583  7.521855
9    1 0.0000  0.000000 3.612583 12.538810
10   1 0.0000  0.000000 3.612583 17.555765
11   1 0.0000  0.000000 3.612583 22.572720
12   1 0.0000  0.000000 3.612583 27.589675
13   1 0.0000 -1.564294 6.322020  2.504900
14   1 0.0000 -1.564294 6.322020  7.521855
15   1 0.0000 -1.564294 6.322020 12.538810
16   1 0.0000 -1.564294 6.322020 17.555765
17   1 0.0000 -1.564294 6.322020 22.572720
18   1 0.0000 -1.564294 6.322020 27.589675
19   1 0.0000 -3.128588 9.031457  2.504900
20   1 0.0000 -3.128588 9.031457  7.521855
21   1 0.0000 -3.128588 9.031457 12.538810
22   1 0.0000 -3.128588 9.031457 17.555765
23   1 0.0000 -3.128588 9.031457 22.572720
24   1 0.0000 -3.128588 9.031457 27.589675
25   1 0.0000  4.692882 0.903146  2.504900
26   1 0.0000  4.692882 0.903146  7.521855
27   1 0.0000  4.692882 0.903146 12.538810
28   1 0.0000  4.692882 0.903146 17.555765
29   1 0.0000  4.692882 0.903146 22.572720
30   1 0.0000  4.692882 0.903146 27.589675
31   1 0.0000  3.128588 3.612583  2.504900
32   1 0.0000  3.128588 3.612583  7.521855
33   1 0.0000  3.128588 3.612583 12.538810
34   1 0.0000  3.128588 3.612583 17.555765
35   1 0.0000  3.128588 3.612583 22.572720
36   1 0.0000  3.128588 3.612583 27.589675
37   1 0.0000  1.564294 6.322020  2.504900
38   1 0.0000  1.564294 6.322020  7.521855
39   1 0.0000  1.564294 6.322020 12.538810
40   1 0.0000  1.564294 6.322020 17.555765
41   1 0.0000  1.564294 6.322020 22.572720
42   1 0.0000  1.564294 6.322020 27.589675
43   1 0.0000  0.000000 9.031457  2.504900
44   1 0.0000  0.000000 9.031457  7.521855
45   1 0.0000  0.000000 9.031457 12.538810
46   1 0.0000  0.000000 9.031457 17.555765
47   1 0.0000  0.000000 9.031457 22.572720
48   1 0.0000  0.000000 9.031457 27.589675
49   1 0.0000  7.821470 0.903146  2.504900
50   1 0.0000  7.821470 0.903146  7.521855
51   1 0.0000  7.821470 0.903146 12.538810
52   1 0.0000  7.821470 0.903146 17.555765
53   1 0.0000  7.821470 0.903146 22.572720
54   1 0.0000  7.821470 0.903146 27.589675
55   1 0.0000  6.257176 3.612583  2.504900
56   1 0.0000  6.257176 3.612583  7.521855
57   1 0.0000  6.257176 3.612583 12.538810
58   1 0.0000  6.257176 3.612583 17.555765
59   1 0.0000  6.257176 3.612583 22.572720
60   1 0.0000  6.257176 3.612583 27.589675
61   1 0.0000  4.692882 6.322020  2.504900
62   1 0.0000  4.692882 6.322020  7.521855
63   1 0.0000  4.692882 6.322020 12.538810
64   1 0.0000  4.692882 6.322020 17.555765
65   1 0.0000  4.692882 6.322020 22.572720
66   1 0.0000  4.692882 6.322020 27.589675
67   1 0.0000  3.128588 9.031457  2.504900
68   1 0.0000  3.128588 9.031457  7.521855
69   1 0.0000  3.128588 9.031457 12.538810
70   1 0.0000  3.128588 9.031457 17.555765
71   1 0.0000  3.128588 9.031457 22.572720
72   1 0.0000  3.128588 9.031457 27.589675
73   1 0.0000 10.950058 0.903146  2.504900
74   1 0.0000 10.950058 0.903146  7.521855
75   1 0.0000 10.950058 0.903146 12.538810
76   1 0.0000 10.950058 0.903146 17.555765
77   1 0.0000 10.950058 0.903146 22.572720
78   1 0.0000 10.950058 0.903146 27.589675
79   1 0.0000  9.385764 3.612583  2.504900
80   1 0.0000  9.385764 3.612583  7.521855
81   1 0.0000  9.385764 3.612583 12.538810
82   1 0.0000  9.385764 3.612583 17.555765
83   1 0.0000  9.385764 3.612583 22.572720
84   1 0.0000  9.385764 3.612583 27.589675
85   1 0.0000  7.821470 6.322020  2.504900
86   1 0.0000  7.821470 6.322020  7.521855
87   1 0.0000  7.821470 6.322020 12.538810
88   1 0.0000  7.821470 6.322020 17.555765
89   1 0.0000  7.821470 6.322020 22.572720
90   1 0.0000  7.821470 6.322020 27.589675
91   1 0.0000  6.257176 9.031457  2.504900
92   1 0.0000  6.257176 9.031457  7.521855
93   1 0.0000  6.257176 9.031457 12.538810
94   1 0.0000  6.257176 9.031457 17.555765
95   1 0.0000  6.257176 9.031457 22.572720
96   1 0.0000  6.257176 9.031457 27.589675
97   1 0.0000  0.000000 1.806291  5.013378
98   1 0.0000  0.000000 1.806291 10.030333
99   1 0.0000  0.000000 1.806291 15.047288
100  1 0.0000  0.000000 1.806291 20.064243
101  1 0.0000  0.000000 1.806291 25.081198
102  1 0.0000  0.000000 1.806291 30.098153
103  1 0.0000 -1.564294 4.515728  5.013378
104  1 0.0000 -1.564294 4.515728 10.030333
105  1 0.0000 -1.564294 4.515728 15.047288
106  1 0.0000 -1.564294 4.515728 20.064243
107  1 0.0000 -1.564294 4.515728 25.081198
108  1 0.0000 -1.564294 4.515728 30.098153
109  1 0.0000 -3.128588 7.225165  5.013378
110  1 0.0000 -3.128588 7.225165 10.030333
111  1 0.0000 -3.128588 7.225165 15.047288
112  1 0.0000 -3.128588 7.225165 20.064243
113  1 0.0000 -3.128588 7.225165 25.081198
114  1 0.0000 -3.128588 7.225165 30.098153
115  1 0.0000 -4.692882 9.934602  5.013378
116  1 0.0000 -4.692882 9.934602 10.030333
117  1 0.0000 -4.692882 9.934602 15.047288
118  1 0.0000 -4.692882 9.934602 20.064243
119  1 0.0000 -4.692882 9.934602 25.081198
120  1 0.0000 -4.692882 9.934602 30.098153
121  1 0.0000  3.128588 1.806291  5.013378
122  1 0.0000  3.128588 1.806291 10.030333
123  1 0.0000  3.128588 1.806291 15.047288
124  1 0.0000  3.128588 1.806291 20.064243
125  1 0.0000  3.128588 1.806291 25.081198
126  1 0.0000  3.128588 1.806291 30.098153
127  1 0.0000  1.564294 4.515728  5.013378
128  1 0.0000  1.564294 4.515728 10.030333
129  1 0.0000  1.564294 4.515728 15.047288
130  1 0.0000  1.564294 4.515728 20.064243
131  1 0.0000  1.564294 4.515728 25.081198
132  1 0.0000  1.564294 4.515728 30.098153
133  1 0.0000  0.000000 7.225165  5.013378
134  1 0.0000  0.000000 7.225165 10.030333
135  1 0.0000  0.000000 7.225165 15.047288
136  1 0.0000  0.000000 7.225165 20.064243
137  1 0.0000  0.000000 7.225165 25.081198
138  1 0.0000  0.000000 7.225165 30.098153
139  1 0.0000 -1.564294 9.934602  5.013378
140  1 0.0000 -1.564294 9.934602 10.030333
141  1 0.0000 -1.564294 9.934602 15.047288
142  1 0.0000 -1.564294 9.934602 20.064243
143  1 0.0000 -1.564294 9.934602 25.081198
144  1 0.0000 -1.564294 9.934602 30.098153
145  1 0.0000  6.257176 1.806291  5.013378
146  1 0.0000  6.257176 1.806291 10.030333
147  1 0.0000  6.257176 1.806291 15.047288
148  1 0.0000  6.257176 1.806291 20.064243
149  1 0.0000  6.257176 1.806291 25.081198
150  1 0.0000  6.257176 1.806291 30.098153
151  1 0.0000  4.692882 4.515728  5.013378
152  1 0.0000  4.692882 4.515728 10.030333
153  1 0.0000  4.692882 4.515728 15.047288
154  1 0.0000  4.692882 4.515728 20.064243
155  1 0.0000  4.692882 4.515728 25.081198
156  1 0.0000  4.692882 4.515728 30.098153
157  1 0.0000  3.128588 7.225165  5.013378
158  1 0.0000  3.128588 7.225165 10.030333
159  1 0.0000  3.128588 7.225165 15.047288
160  1 0.0000  3.128588 7.225165 20.064243
161  1 0.0000  3.128588 7.225165 25.081198
162  1 0.0000  3.128588 7.225165 30.098153
163  1 0.0000  1.564294 9.934602  5.013378
164  1 0.0000  1.564294 9.934602 10.030333
165  1 0.0000  1.564294 9.934602 15.047288
166  1 0.0000  1.564294 9.934602 20.064243
167  1 0.0000  1.564294 9.934602 25.081198
168  1 0.0000  1.564294 9.934602 30.098153
169  1 0.0000  9.385764 1.806291  5.013378
170  1 0.0000  9.385764 1.806291 10.030333
171  1 0.0000  9.385764 1.806291 15.047288
172  1 0.0000  9.385764 1.806291 20.064243
173  1 0.0000  9.385764 1.806291 25.081198
174  1 0.0000  9.385764 1.806291 30.098153
175  1 0.0000  7.821470 4.515728  5.013378
176  1 0.0000  7.821470 4.515728 10.030333
177  1 0.0000  7.821470 4.515728 15.047288
178  1 0.0000  7.821470 4.515728 20.064243
179  1 0.0000  7.821470 4.515728 25.081198
180  1 0.0000  7.821470 4.515728 30.098153
181  1 0.0000  6.257176 7.225165  5.013378
182  1 0.0000  6.257176 7.225165 10.030333
183  1 0.0000  6.257176 7.225165 15.047288
184  1 0.0000  6.257176 7.225165 20.064243
185  1 0.0000  6.257176 7.225165 25.081198
186  1 0.0000  6.257176 7.225165 30.098153
187  1 0.0000  4.692882 9.934602  5.013378
188  1 0.0000  4.692882 9.934602 10.030333
189  1 0.0000  4.692882 9.934602 15.047288
190  1 0.0000  4.692882 9.934602 20.064243
191  1 0.0000  4.692882 9.934602 25.081198
192  1 0.0000  4.692882 9.934602 30.098153
193  2 0.0000  1.564294 0.903146  4.418497
194  2 0.0000  1.564294 0.903146  9.435452
195  2 0.0000  1.564294 0.903146 14.452407
196  2 0.0000  1.564294 0.903146 19.469362
197  2 0.0000  1.564294 0.903146 24.486317
198  2 0.0000  1.564294 0.903146 29.503272
199  2 0.0000  0.000000 3.612583  4.418497
200  2 0.0000  0.000000 3.612583  9.435452
201  2 0.0000  0.000000 3.612583 14.452407
202  2 0.0000  0.000000 3.612583 19.469362
203  2 0.0000  0.000000 3.612583 24.486317
204  2 0.0000  0.000000 3.612583 29.503272
205  2 0.0000 -1.564294 6.322020  4.418497
206  2 0.0000 -1.564294 6.322020  9.435452
207  2 0.0000 -1.564294 6.322020 14.452407
208  2 0.0000 -1.564294 6.322020 19.469362
209  2 0.0000 -1.564294 6.322020 24.486317
210  2 0.0000 -1.564294 6.322020 29.503272
211  2 0.0000 -3.128588 9.031457  4.418497
212  2 0.0000 -3.128588 9.031457  9.435452
213  2 0.0000 -3.128588 9.031457 14.452407
214  2 0.0000 -3.128588 9.031457 19.469362
215  2 0.0000 -3.128588 9.031457 24.486317
216  2 0.0000 -3.128588 9.031457 29.503272
217  2 0.0000  4.692882 0.903146  4.418497
218  2 0.0000  4.692882 0.903146  9.435452
219  2 0.0000  4.692882 0.903146 14.452407
220  2 0.0000  4.692882 0.903146 19.469362
221  2 0.0000  4.692882 0.903146 24.486317
222  2 0.0000  4.692882 0.903146 29.503272
223  2 0.0000  3.128588 3.612583  4.418497
224  2 0.0000  3.128588 3.612583  9.435452
225  2 0.0000  3.128588 3.612583 14.452407
226  2 0.0000  3.128588 3.612583 19.469362
227  2 0.0000  3.128588 3.612583 24.486317
228  2 0.0000  3.128588 3.612583 29.503272
229  2 0.0000  1.564294 6.322020  4.418497
230  2 0.0000  1.564294 6.322020  9.435452
231  2 0.0000  1.564294 6.322020 14.452407
232  2 0.0000  1.564294 6.322020 19.469362
233  2 0.0000  1.564294 6.322020 24.486317
234  2 0.0000  1.564294 6.322020 29.503272
235  2 0.0000  0.000000 9.031457  4.418497
236  2 0.0000  0.000000 9.031457  9.435452
237  2 0.0000  0.000000 9.031457 14.452407
238  2 0.0000  0.000000 9.031457 19.469362
239  2 0.0000  0.000000 9.031457 24.486317
240  2 0.0000  0.000000 9.031457 29.503272
241  2 0.0000  7.821470 0.903146  4.418497
242  2 0.0000  7.821470 0.903146  9.435452
243  2 0.0000  7.821470 0.903146 14.452407
244  2 0.0000  7.821470 0.903146 19.469362
245  2 0.0000  7.821470 0.903146 24.486317
246  2 0.0000  7.821470 0.903146 29.503272
247  2 0.0000  6.257176 3.612583  4.418497
248  2 0.0000  6.257176 3.612583  9.435452
249  2 0.0000  6.257176 3.612583 14.452407
250  2 0.0000  6.257176 3.612583 19.469362
251  2 0.0000  6.257176 3.612583 24.486317
252  2 0.0000  6.257176 3.612583 29.503272
253  2 0.0000  4.692882 6.322020  4.418497
254  2 0.0000  4.692882 6.322020  9.435452
255  2 0.0000  4.692882 6.322020 14.452407
256  2 0.0000  4.692882 6.322020 19.469362
257  2 0.0000  4.692882 6.322020 24.486317
258  2 0.0000  4.692882 6.322020 29.503272
259  2 0.0000  3.128588 9.031457  4.418497
260  2 0.0000  3.128588 9.031457  9.435452
261  2 0.0000  3.128588 9.031457 14.452407
262  2 0.0000  3.128588 9.031457 19.469362
263  2 0.0000  3.128588 9.031457 24.486317
264  2 0.0000  3.128588 9.031457 29.503272
265  2 0.0000 10.950058 0.903146  4.418497
266  2 0.0000 10.950058 0.903146  9.435452
267  2 0.0000 10.950058 0.903146 14.452407
268  2 0.0000 10.950058 0.903146 19.469362
269  2 0.0000 10.950058 0.903146 24.486317
270  2 0.0000 10.950058 0.903146 29.503272
271  2 0.0000  9.385764 3.612583  4.418497
272  2 0.0000  9.385764 3.612583  9.435452
273  2 0.0000  9.385764 3.612583 14.452407
274  2 0.0000  9.385764 3.612583 19.469362
275  2 0.0000  9.385764 3.612583 24.486317
276  2 0.0000  9.385764 3.612583 29.503272
277  2 0.0000  7.821470 6.322020  4.418497
278  2 0.0000  7.821470 6.322020  9.435452
279  2 0.0000  7.821470 6.322020 14.452407
280  2 0.0000  7.821470 6.322020 19.469362
281  2 0.0000  7.821470 6.322020 24.486317
282  2 0.0000  7.821470 6.322020 29.503272
283  2 0.0000  6.257176 9.031457  4.418497
284  2 0.0000  6.257176 9.031457  9.435452
285  2 0.0000  6.257176 9.031457 14.452407
286  2 0.0000  6.257176 9.031457 19.469362
287  2 0.0000  6.257176 9.031457 24.486317
288  2 0.0000  6.257176 9.031457 29.503272
289  2 0.0000  0.000000 1.806291  1.910020
290  2 0.0000  0.000000 1.806291  6.926975
291  2 0.0000  0.000000 1.806291 11.943930
292  2 0.0000  0.000000 1.806291 16.960885
293  2 0.0000  0.000000 1.806291 21.977840
294  2 0.0000  0.000000 1.806291 26.994795
295  2 0.0000 -1.564294 4.515728  1.910020
296  2 0.0000 -1.564294 4.515728  6.926975
297  2 0.0000 -1.564294 4.515728 11.943930
298  2 0.0000 -1.564294 4.515728 16.960885
299  2 0.0000 -1.564294 4.515728 21.977840
300  2 0.0000 -1.564294 4.515728 26.994795
301  2 0.0000 -3.128588 7.225165  1.910020
302  2 0.0000 -3.128588 7.225165  6.926975
303  2 0.0000 -3.128588 7.225165 11.943930
304  2 0.0000 -3.128588 7.225165 16.960885
305  2 0.0000 -3.128588 7.225165 21.977840
306  2 0.0000 -3.128588 7.225165 26.994795
307  2 0.0000 -4.692882 9.934602  1.910020
308  2 0.0000 -4.692882 9.934602  6.926975
309  2 0.0000 -4.692882 9.934602 11.943930
310  2 0.0000 -4.692882 9.934602 16.960885
311  2 0.0000 -4.692882 9.934602 21.977840
312  2 0.0000 -4.692882 9.934602 26.994795
313  2 0.0000  3.128588 1.806291  1.910020
314  2 0.0000  3.128588 1.806291  6.926975
315  2 0.0000  3.128588 1.806291 11.943930
316  2 0.0000  3.128588 1.806291 16.960885
317  2 0.0000  3.128588 1.806291 21.977840
318  2 0.0000  3.128588 1.806291 26.994795
319  2 0.0000  1.564294 4.515728  1.910020
320  2 0.0000  1.564294 4.515728  6.926975
321  2 0.0000  1.564294 4.515728 11.943930
322  2 0.0000  1.564294 4.515728 16.960885
323  2 0.0000  1.564294 4.515728 21.977840
324  2 0.0000  1.564294 4.515728 26.994795
325  2 0.0000  0.000000 7.225165  1.910020
326  2 0.0000  0.000000 7.225165  6.926975
327  2 0.0000  0.000000 7.225165 11.943930
328  2 0.0000  0.000000 7.225165 16.960885
329  2 0.0000  0.000000 7.225165 21.977840
330  2 0.0000  0.000000 7.225165 26.994795
331  2 0.0000 -1.564294 9.934602  1.910020
332  2 0.0000 -1.564294 9.934602  6.926975
333  2 0.0000 -1.564294 9.934602 11.943930
334  2 0.0000 -1.564294 9.934602 16.960885
335  2 0.0000 -1.564294 9.934602 21.977840
336  2 0.0000 -1.564294 9.934602 26.994795
337  2 0.0000  6.257176 1.806291  1.910020
338  2 0.0000  6.257176 1.806291  6.926975
339  2 0.0000  6.257176 1.806291 11.943930
340  2 0.0000  6.257176 1.806291 16.960885
341  2 0.0000  6.257176 1.806291 21.977840
342  2 0.0000  6.257176 1.806291 26.994795
343  2 0.0000  4.692882 4.515728  1.910020
344  2 0.0000  4.692882 4.515728  6.926975
345  2 0.0000  4.692882 4.515728 11.943930
346  2 0.0000  4.692882 4.515728 16.960885
347  2 0.0000  4.692882 4.515728 21.977840
348  2 0.0000  4.692882 4.515728 26.994795
349  2 0.0000  3.128588 7.225165  1.910020
350  2 0.0000  3.128588 7.225165  6.926975
351  2 0.0000  3.128588 7.225165 11.943930
352  2 0.0000  3.128588 7.225165 16.960885
353  2 0.0000  3.128588 7.225165 21.977840
354  2 0.0000  3.128588 7.225165 26.994795
355  2 0.0000  1.564294 9.934602  1.910020
356  2 0.0000  1.564294 9.934602  6.926975
357  2 0.0000  1.564294 9.934602 11.943930
358  2 0.0000  1.564294 9.934602 16.960885
359  2 0.0000  1.564294 9.934602 21.977840
360  2 0.0000  1.564294 9.934602 26.994795
361  2 0.0000  9.385764 1.806291  1.910020
362  2 0.0000  9.385764 1.806291  6.926975
363  2 0.0000  9.385764 1.806291 11.943930
364  2 0.0000  9.385764 1.806291 16.960885
365  2 0.0000  9.385764 1.806291 21.977840
366  2 0.0000  9.385764 1.806291 26.994795
367  2 0.0000  7.821470 4.515728  1.910020
368  2 0.0000  7.821470 4.515728  6.926975
369  2 0.0000  7.821470 4.515728 11.943930
370  2 0.0000  7.821470 4.515728 16.960885
371  2 0.0000  7.821470 4.515728 21.977840
372  2 0.0000  7.821470 4.515728 26.994795
373  2 0.0000  6.257176 7.225165  1.910020
374  2 0.0000  6.257176 7.225165  6.926975
375  2 0.0000  6.257176 7.225165 11.943930
376  2 0.0000  6.257176 7.225165 16.960885
377  2 0.0000  6.257176 7.225165 21.977840
378  2 0.0000  6.257176 7.225165 26.994795
379  2 0.0000  4.692882 9.934602  1.910020
380  2 0.0000  4.692882 9.934602  6.926975
381  2 0.0000  4.692882 9.934602 11.943930
382  2 0.0000  4.692882 9.934602 16.960885
383  2 0.0000  4.692882 9.934602 21.977840
384  2 0.0000  4.692882 9.934602 26.994795

