Generated by pymatgen.io.lammps.data.LammpsData

64  atoms

 2  atom types

0.000000 6.257176  xlo xhi
0.000000 5.418874  ylo yhi
0.000000 20.067820  zlo zhi
-3.128588 0.000000 0.000000  xy xz yz

Masses

1  26.981539
2  14.006700

Atoms

1   1 0.0000  1.564294 0.903146  2.504900
2   1 0.0000  1.564294 0.903146  7.521855
3   1 0.0000  1.564294 0.903146 12.538810
4   1 0.0000  1.564294 0.903146 17.555765
5   1 0.0000  0.000000 3.612583  2.504900
6   1 0.0000  0.000000 3.612583  7.521855
7   1 0.0000  0.000000 3.612583 12.538810
8   1 0.0000  0.000000 3.612583 17.555765
9   1 0.0000  4.692882 0.903146  2.504900
10  1 0.0000  4.692882 0.903146  7.521855
11  1 0.0000  4.692882 0.903146 12.538810
12  1 0.0000  4.692882 0.903146 17.555765
13  1 0.0000  3.128588 3.612583  2.504900
14  1 0.0000  3.128588 3.612583  7.521855
15  1 0.0000  3.128588 3.612583 12.538810
16  1 0.0000  3.128588 3.612583 17.555765
17  1 0.0000  0.000000 1.806291  5.013378
18  1 0.0000  0.000000 1.806291 10.030333
19  1 0.0000  0.000000 1.806291 15.047288
20  1 0.0000  0.000000 1.806291 20.064243
21  1 0.0000 -1.564294 4.515728  5.013378
22  1 0.0000 -1.564294 4.515728 10.030333
23  1 0.0000 -1.564294 4.515728 15.047288
24  1 0.0000 -1.564294 4.515728 20.064243
25  1 0.0000  3.128588 1.806291  5.013378
26  1 0.0000  3.128588 1.806291 10.030333
27  1 0.0000  3.128588 1.806291 15.047288
28  1 0.0000  3.128588 1.806291 20.064243
29  1 0.0000  1.564294 4.515728  5.013378
30  1 0.0000  1.564294 4.515728 10.030333
31  1 0.0000  1.564294 4.515728 15.047288
32  1 0.0000  1.564294 4.515728 20.064243
33  2 0.0000  1.564294 0.903146  4.418497
34  2 0.0000  1.564294 0.903146  9.435452
35  2 0.0000  1.564294 0.903146 14.452407
36  2 0.0000  1.564294 0.903146 19.469362
37  2 0.0000  0.000000 3.612583  4.418497
38  2 0.0000  0.000000 3.612583  9.435452
39  2 0.0000  0.000000 3.612583 14.452407
40  2 0.0000  0.000000 3.612583 19.469362
41  2 0.0000  4.692882 0.903146  4.418497
42  2 0.0000  4.692882 0.903146  9.435452
43  2 0.0000  4.692882 0.903146 14.452407
44  2 0.0000  4.692882 0.903146 19.469362
45  2 0.0000  3.128588 3.612583  4.418497
46  2 0.0000  3.128588 3.612583  9.435452
47  2 0.0000  3.128588 3.612583 14.452407
48  2 0.0000  3.128588 3.612583 19.469362
49  2 0.0000  0.000000 1.806291  1.910020
50  2 0.0000  0.000000 1.806291  6.926975
51  2 0.0000  0.000000 1.806291 11.943930
52  2 0.0000  0.000000 1.806291 16.960885
53  2 0.0000 -1.564294 4.515728  1.910020
54  2 0.0000 -1.564294 4.515728  6.926975
55  2 0.0000 -1.564294 4.515728 11.943930
56  2 0.0000 -1.564294 4.515728 16.960885
57  2 0.0000  3.128588 1.806291  1.910020
58  2 0.0000  3.128588 1.806291  6.926975
59  2 0.0000  3.128588 1.806291 11.943930
60  2 0.0000  3.128588 1.806291 16.960885
61  2 0.0000  1.564294 4.515728  1.910020
62  2 0.0000  1.564294 4.515728  6.926975
63  2 0.0000  1.564294 4.515728 11.943930
64  2 0.0000  1.564294 4.515728 16.960885

