Generated by pymatgen.io.lammps.data.LammpsData

288  atoms

  3  atom types

0.000000 9.884475  xlo xhi
0.000000 8.560209  ylo yhi
0.000000 43.822051  zlo zhi
-4.942228 -0.000154 0.000167  xy xz yz

Masses

1  26.981539
2  30.973762
3  15.999400

Atoms

1    1 0.0000 -0.169936 4.280111  3.651838
2    1 0.0000 -0.169974 4.280153 14.607350
3    1 0.0000 -0.170013 4.280194 25.562863
4    1 0.0000 -0.170051 4.280236 36.518375
5    1 0.0000 -2.641050 8.560216  3.651838
6    1 0.0000 -2.641088 8.560257 14.607350
7    1 0.0000 -2.641127 8.560299 25.562863
8    1 0.0000 -2.641165 8.560341 36.518375
9    1 0.0000  4.772302 4.280111  3.651838
10   1 0.0000  4.772263 4.280153 14.607350
11   1 0.0000  4.772225 4.280194 25.562863
12   1 0.0000  4.772186 4.280236 36.518375
13   1 0.0000  2.301188 8.560216  3.651838
14   1 0.0000  2.301149 8.560257 14.607350
15   1 0.0000  2.301111 8.560299 25.562863
16   1 0.0000  2.301072 8.560341 36.518375
17   1 0.0000  3.791612 1.992930  7.303675
18   1 0.0000  3.791573 1.992972 18.259188
19   1 0.0000  3.791535 1.993014 29.214700
20   1 0.0000  3.791496 1.993055 40.170213
21   1 0.0000  1.320498 6.273035  7.303675
22   1 0.0000  1.320459 6.273077 18.259188
23   1 0.0000  1.320421 6.273118 29.214700
24   1 0.0000  1.320382 6.273160 40.170213
25   1 0.0000  8.733849 1.992930  7.303675
26   1 0.0000  8.733811 1.992972 18.259188
27   1 0.0000  8.733772 1.993014 29.214700
28   1 0.0000  8.733734 1.993055 40.170213
29   1 0.0000  6.262735 6.273035  7.303675
30   1 0.0000  6.262697 6.273077 18.259188
31   1 0.0000  6.262658 6.273118 29.214700
32   1 0.0000  6.262620 6.273160 40.170213
33   1 0.0000  1.320479 2.287247 10.955509
34   1 0.0000  1.320440 2.287289 21.911022
35   1 0.0000  1.320402 2.287330 32.866534
36   1 0.0000  1.320364 2.287372 43.822047
37   1 0.0000 -1.150635 6.567352 10.955509
38   1 0.0000 -1.150673 6.567393 21.911022
39   1 0.0000 -1.150712 6.567435 32.866534
40   1 0.0000 -1.150750 6.567477 43.822047
41   1 0.0000  6.262716 2.287247 10.955509
42   1 0.0000  6.262678 2.287289 21.911022
43   1 0.0000  6.262639 2.287330 32.866534
44   1 0.0000  6.262601 2.287372 43.822047
45   1 0.0000  3.791602 6.567352 10.955509
46   1 0.0000  3.791564 6.567393 21.911022
47   1 0.0000  3.791525 6.567435 32.866534
48   1 0.0000  3.791487 6.567477 43.822047
49   2 0.0000 -0.169491 4.280136  9.129576
50   2 0.0000 -0.169530 4.280178 20.085089
51   2 0.0000 -0.169568 4.280219 31.040601
52   2 0.0000 -0.169607 4.280261 41.996114
53   2 0.0000 -2.640605 8.560241  9.129576
54   2 0.0000 -2.640644 8.560282 20.085089
55   2 0.0000 -2.640682 8.560324 31.040601
56   2 0.0000 -2.640721 8.560366 41.996114
57   2 0.0000  4.772746 4.280136  9.129576
58   2 0.0000  4.772708 4.280178 20.085089
59   2 0.0000  4.772669 4.280219 31.040601
60   2 0.0000  4.772631 4.280261 41.996114
61   2 0.0000  2.301632 8.560241  9.129576
62   2 0.0000  2.301594 8.560282 20.085089
63   2 0.0000  2.301555 8.560324 31.040601
64   2 0.0000  2.301517 8.560366 41.996114
65   2 0.0000  3.791402 1.993294  1.825933
66   2 0.0000  3.791364 1.993335 12.781445
67   2 0.0000  3.791325 1.993377 23.736958
68   2 0.0000  3.791287 1.993419 34.692471
69   2 0.0000  1.320288 6.273398  1.825933
70   2 0.0000  1.320250 6.273440 12.781445
71   2 0.0000  1.320211 6.273482 23.736958
72   2 0.0000  1.320173 6.273523 34.692471
73   2 0.0000  8.733639 1.993294  1.825933
74   2 0.0000  8.733601 1.993335 12.781445
75   2 0.0000  8.733563 1.993377 23.736958
76   2 0.0000  8.733524 1.993419 34.692471
77   2 0.0000  6.262526 6.273398  1.825933
78   2 0.0000  6.262487 6.273440 12.781445
79   2 0.0000  6.262449 6.273482 23.736958
80   2 0.0000  6.262410 6.273523 34.692471
81   2 0.0000  1.320276 2.286831  5.477757
82   2 0.0000  1.320238 2.286873 16.433269
83   2 0.0000  1.320199 2.286914 27.388782
84   2 0.0000  1.320161 2.286956 38.344295
85   2 0.0000 -1.150838 6.566936  5.477757
86   2 0.0000 -1.150876 6.566977 16.433269
87   2 0.0000 -1.150915 6.567019 27.388782
88   2 0.0000 -1.150953 6.567061 38.344295
89   2 0.0000  6.262514 2.286831  5.477757
90   2 0.0000  6.262475 2.286873 16.433269
91   2 0.0000  6.262437 2.286914 27.388782
92   2 0.0000  6.262398 2.286956 38.344295
93   2 0.0000  3.791400 6.566936  5.477757
94   2 0.0000  3.791361 6.566977 16.433269
95   2 0.0000  3.791323 6.567019 27.388782
96   2 0.0000  3.791284 6.567061 38.344295
97   3 0.0000  0.254638 1.776494  1.279828
98   3 0.0000  0.254599 1.776535 12.235341
99   3 0.0000  0.254561 1.776577 23.190854
100  3 0.0000  0.254523 1.776619 34.146366
101  3 0.0000 -2.216476 6.056598  1.279828
102  3 0.0000 -2.216514 6.056640 12.235341
103  3 0.0000 -2.216553 6.056682 23.190854
104  3 0.0000 -2.216591 6.056723 34.146366
105  3 0.0000  5.196875 1.776494  1.279828
106  3 0.0000  5.196837 1.776535 12.235341
107  3 0.0000  5.196798 1.776577 23.190854
108  3 0.0000  5.196760 1.776619 34.146366
109  3 0.0000  2.725761 6.056598  1.279828
110  3 0.0000  2.725723 6.056640 12.235341
111  3 0.0000  2.725685 6.056682 23.190854
112  3 0.0000  2.725646 6.056723 34.146366
113  3 0.0000  0.805305 3.612380  4.931664
114  3 0.0000  0.805266 3.612422 15.887176
115  3 0.0000  0.805228 3.612463 26.842689
116  3 0.0000  0.805189 3.612505 37.798202
117  3 0.0000 -1.665809 7.892485  4.931664
118  3 0.0000 -1.665848 7.892526 15.887176
119  3 0.0000 -1.665886 7.892568 26.842689
120  3 0.0000 -1.665924 7.892610 37.798202
121  3 0.0000  5.747542 3.612380  4.931664
122  3 0.0000  5.747504 3.612422 15.887176
123  3 0.0000  5.747465 3.612463 26.842689
124  3 0.0000  5.747427 3.612505 37.798202
125  3 0.0000  3.276428 7.892485  4.931664
126  3 0.0000  3.276390 7.892526 15.887176
127  3 0.0000  3.276351 7.892568 26.842689
128  3 0.0000  3.276313 7.892610 37.798202
129  3 0.0000 -1.059961 3.171396  8.583509
130  3 0.0000 -1.060000 3.171437 19.539021
131  3 0.0000 -1.060038 3.171479 30.494534
132  3 0.0000 -1.060077 3.171521 41.450047
133  3 0.0000 -3.531075 7.451500  8.583509
134  3 0.0000 -3.531114 7.451542 19.539021
135  3 0.0000 -3.531152 7.451584 30.494534
136  3 0.0000 -3.531190 7.451625 41.450047
137  3 0.0000  3.882276 3.171396  8.583509
138  3 0.0000  3.882238 3.171437 19.539021
139  3 0.0000  3.882199 3.171479 30.494534
140  3 0.0000  3.882161 3.171521 41.450047
141  3 0.0000  1.411162 7.451500  8.583509
142  3 0.0000  1.411124 7.451542 19.539021
143  3 0.0000  1.411085 7.451584 30.494534
144  3 0.0000  1.411047 7.451625 41.450047
145  3 0.0000  2.725725 2.503627  6.023841
146  3 0.0000  2.725686 2.503669 16.979353
147  3 0.0000  2.725648 2.503710 27.934866
148  3 0.0000  2.725609 2.503752 38.890379
149  3 0.0000  0.254611 6.783732  6.023841
150  3 0.0000  0.254572 6.783773 16.979353
151  3 0.0000  0.254534 6.783815 27.934866
152  3 0.0000  0.254495 6.783857 38.890379
153  3 0.0000  7.667962 2.503627  6.023841
154  3 0.0000  7.667924 2.503669 16.979353
155  3 0.0000  7.667885 2.503710 27.934866
156  3 0.0000  7.667847 2.503752 38.890379
157  3 0.0000  5.196848 6.783732  6.023841
158  3 0.0000  5.196810 6.783773 16.979353
159  3 0.0000  5.196771 6.783815 27.934866
160  3 0.0000  5.196733 6.783857 38.890379
161  3 0.0000  3.276435 0.667757  2.372018
162  3 0.0000  3.276396 0.667799 13.327531
163  3 0.0000  3.276358 0.667841 24.283044
164  3 0.0000  3.276319 0.667882 35.238556
165  3 0.0000  0.805321 4.947862  2.372018
166  3 0.0000  0.805282 4.947904 13.327531
167  3 0.0000  0.805244 4.947945 24.283044
168  3 0.0000  0.805206 4.947987 35.238556
169  3 0.0000  8.218672 0.667757  2.372018
170  3 0.0000  8.218634 0.667799 13.327531
171  3 0.0000  8.218595 0.667841 24.283044
172  3 0.0000  8.218557 0.667882 35.238556
173  3 0.0000  5.747558 4.947862  2.372018
174  3 0.0000  5.747520 4.947904 13.327531
175  3 0.0000  5.747481 4.947945 24.283044
176  3 0.0000  5.747443 4.947987 35.238556
177  3 0.0000  1.411138 1.108822  9.675673
178  3 0.0000  1.411099 1.108864 20.631186
179  3 0.0000  1.411061 1.108905 31.586698
180  3 0.0000  1.411022 1.108947 42.542211
181  3 0.0000 -1.059976 5.388927  9.675673
182  3 0.0000 -1.060015 5.388968 20.631186
183  3 0.0000 -1.060053 5.389010 31.586698
184  3 0.0000 -1.060092 5.389052 42.542211
185  3 0.0000  6.353375 1.108822  9.675673
186  3 0.0000  6.353337 1.108864 20.631186
187  3 0.0000  6.353298 1.108905 31.586698
188  3 0.0000  6.353260 1.108947 42.542211
189  3 0.0000  3.882261 5.388927  9.675673
190  3 0.0000  3.882223 5.388968 20.631186
191  3 0.0000  3.882184 5.389010 31.586698
192  3 0.0000  3.882146 5.389052 42.542211
193  3 0.0000  1.331906 1.256875  4.352574
194  3 0.0000  1.331867 1.256917 15.308087
195  3 0.0000  1.331829 1.256958 26.263599
196  3 0.0000  1.331790 1.257000 37.219112
197  3 0.0000 -1.139208 5.536980  4.352574
198  3 0.0000 -1.139247 5.537021 15.308087
199  3 0.0000 -1.139285 5.537063 26.263599
200  3 0.0000 -1.139324 5.537105 37.219112
201  3 0.0000  6.274143 1.256875  4.352574
202  3 0.0000  6.274105 1.256917 15.308087
203  3 0.0000  6.274066 1.256958 26.263599
204  3 0.0000  6.274028 1.257000 37.219112
205  3 0.0000  3.803029 5.536980  4.352574
206  3 0.0000  3.802991 5.537021 15.308087
207  3 0.0000  3.802952 5.537063 26.263599
208  3 0.0000  3.802914 5.537105 37.219112
209  3 0.0000  3.187774 0.525072  8.004412
210  3 0.0000  3.187735 0.525114 18.959925
211  3 0.0000  3.187697 0.525155 29.915437
212  3 0.0000  3.187659 0.525197 40.870950
213  3 0.0000  0.716660 4.805177  8.004412
214  3 0.0000  0.716621 4.805218 18.959925
215  3 0.0000  0.716583 4.805260 29.915437
216  3 0.0000  0.716545 4.805302 40.870950
217  3 0.0000  8.130011 0.525072  8.004412
218  3 0.0000  8.129973 0.525114 18.959925
219  3 0.0000  8.129934 0.525155 29.915437
220  3 0.0000  8.129896 0.525197 40.870950
221  3 0.0000  5.658897 4.805177  8.004412
222  3 0.0000  5.658859 4.805218 18.959925
223  3 0.0000  5.658820 4.805260 29.915437
224  3 0.0000  5.658782 4.805302 40.870950
225  3 0.0000  2.893635 2.498184  0.700710
226  3 0.0000  2.893597 2.498226 11.656223
227  3 0.0000  2.893558 2.498267 22.611736
228  3 0.0000  2.893520 2.498309 33.567248
229  3 0.0000  0.422521 6.778289  0.700710
230  3 0.0000  0.422483 6.778330 11.656223
231  3 0.0000  0.422444 6.778372 22.611736
232  3 0.0000  0.422406 6.778414 33.567248
233  3 0.0000  7.835872 2.498184  0.700710
234  3 0.0000  7.835834 2.498226 11.656223
235  3 0.0000  7.835796 2.498267 22.611736
236  3 0.0000  7.835757 2.498309 33.567248
237  3 0.0000  5.364758 6.778289  0.700710
238  3 0.0000  5.364720 6.778330 11.656223
239  3 0.0000  5.364682 6.778372 22.611736
240  3 0.0000  5.364643 6.778414 33.567248
241  3 0.0000 -1.139199 3.023242  2.951093
242  3 0.0000 -1.139237 3.023283 13.906606
243  3 0.0000 -1.139276 3.023325 24.862118
244  3 0.0000 -1.139314 3.023367 35.817631
245  3 0.0000 -3.610313 7.303346  2.951093
246  3 0.0000 -3.610351 7.303388 13.906606
247  3 0.0000 -3.610389 7.303430 24.862118
248  3 0.0000 -3.610428 7.303471 35.817631
249  3 0.0000  3.803039 3.023242  2.951093
250  3 0.0000  3.803000 3.023283 13.906606
251  3 0.0000  3.802962 3.023325 24.862118
252  3 0.0000  3.802923 3.023367 35.817631
253  3 0.0000  1.331925 7.303346  2.951093
254  3 0.0000  1.331886 7.303388 13.906606
255  3 0.0000  1.331848 7.303430 24.862118
256  3 0.0000  1.331810 7.303471 35.817631
257  3 0.0000  0.716643 3.755101 10.254800
258  3 0.0000  0.716604 3.755143 21.210313
259  3 0.0000  0.716566 3.755184 32.165825
260  3 0.0000  0.716527 3.755226 43.121338
261  3 0.0000 -1.754471 8.035206 10.254800
262  3 0.0000 -1.754510 8.035247 21.210313
263  3 0.0000 -1.754548 8.035289 32.165825
264  3 0.0000 -1.754587 8.035331 43.121338
265  3 0.0000  5.658880 3.755101 10.254800
266  3 0.0000  5.658842 3.755143 21.210313
267  3 0.0000  5.658803 3.755184 32.165825
268  3 0.0000  5.658765 3.755226 43.121338
269  3 0.0000  3.187766 8.035206 10.254800
270  3 0.0000  3.187728 8.035247 21.210313
271  3 0.0000  3.187689 8.035289 32.165825
272  3 0.0000  3.187651 8.035331 43.121338
273  3 0.0000  0.422488 1.781940  6.602952
274  3 0.0000  0.422450 1.781982 17.558465
275  3 0.0000  0.422412 1.782023 28.513978
276  3 0.0000  0.422373 1.782065 39.469490
277  3 0.0000 -2.048626 6.062045  6.602952
278  3 0.0000 -2.048664 6.062086 17.558465
279  3 0.0000 -2.048702 6.062128 28.513978
280  3 0.0000 -2.048741 6.062170 39.469490
281  3 0.0000  5.364726 1.781940  6.602952
282  3 0.0000  5.364687 1.781982 17.558465
283  3 0.0000  5.364649 1.782023 28.513978
284  3 0.0000  5.364611 1.782065 39.469490
285  3 0.0000  2.893612 6.062045  6.602952
286  3 0.0000  2.893573 6.062086 17.558465
287  3 0.0000  2.893535 6.062128 28.513978
288  3 0.0000  2.893497 6.062170 39.469490

