Generated by pymatgen.io.lammps.data.LammpsData

1728  atoms

   3  atom types

0.000000 19.768950  xlo xhi
0.000000 17.120419  ylo yhi
0.000000 65.733076  zlo zhi
-9.884456 -0.000231 0.000250  xy xz yz

Masses

1  26.981539
2  30.973762
3  15.999400

Atoms

1     1 0.0000 -0.169936  4.280111  3.651838
2     1 0.0000 -0.169974  4.280153 14.607350
3     1 0.0000 -0.170013  4.280194 25.562863
4     1 0.0000 -0.170051  4.280236 36.518375
5     1 0.0000 -0.170090  4.280278 47.473888
6     1 0.0000 -0.170128  4.280319 58.429401
7     1 0.0000 -2.641050  8.560216  3.651838
8     1 0.0000 -2.641088  8.560257 14.607350
9     1 0.0000 -2.641127  8.560299 25.562863
10    1 0.0000 -2.641165  8.560341 36.518375
11    1 0.0000 -2.641204  8.560382 47.473888
12    1 0.0000 -2.641242  8.560424 58.429401
13    1 0.0000 -5.112164 12.840321  3.651838
14    1 0.0000 -5.112202 12.840362 14.607350
15    1 0.0000 -5.112241 12.840404 25.562863
16    1 0.0000 -5.112279 12.840445 36.518375
17    1 0.0000 -5.112318 12.840487 47.473888
18    1 0.0000 -5.112356 12.840529 58.429401
19    1 0.0000 -7.583278 17.120425  3.651838
20    1 0.0000 -7.583316 17.120467 14.607350
21    1 0.0000 -7.583355 17.120509 25.562863
22    1 0.0000 -7.583393 17.120550 36.518375
23    1 0.0000 -7.583431 17.120592 47.473888
24    1 0.0000 -7.583470 17.120633 58.429401
25    1 0.0000  4.772302  4.280111  3.651838
26    1 0.0000  4.772263  4.280153 14.607350
27    1 0.0000  4.772225  4.280194 25.562863
28    1 0.0000  4.772186  4.280236 36.518375
29    1 0.0000  4.772148  4.280278 47.473888
30    1 0.0000  4.772109  4.280319 58.429401
31    1 0.0000  2.301188  8.560216  3.651838
32    1 0.0000  2.301149  8.560257 14.607350
33    1 0.0000  2.301111  8.560299 25.562863
34    1 0.0000  2.301072  8.560341 36.518375
35    1 0.0000  2.301034  8.560382 47.473888
36    1 0.0000  2.300995  8.560424 58.429401
37    1 0.0000 -0.169926 12.840321  3.651838
38    1 0.0000 -0.169965 12.840362 14.607350
39    1 0.0000 -0.170003 12.840404 25.562863
40    1 0.0000 -0.170042 12.840445 36.518375
41    1 0.0000 -0.170080 12.840487 47.473888
42    1 0.0000 -0.170119 12.840529 58.429401
43    1 0.0000 -2.641040 17.120425  3.651838
44    1 0.0000 -2.641079 17.120467 14.607350
45    1 0.0000 -2.641117 17.120509 25.562863
46    1 0.0000 -2.641156 17.120550 36.518375
47    1 0.0000 -2.641194 17.120592 47.473888
48    1 0.0000 -2.641232 17.120633 58.429401
49    1 0.0000  9.714539  4.280111  3.651838
50    1 0.0000  9.714501  4.280153 14.607350
51    1 0.0000  9.714462  4.280194 25.562863
52    1 0.0000  9.714424  4.280236 36.518375
53    1 0.0000  9.714385  4.280278 47.473888
54    1 0.0000  9.714347  4.280319 58.429401
55    1 0.0000  7.243425  8.560216  3.651838
56    1 0.0000  7.243387  8.560257 14.607350
57    1 0.0000  7.243348  8.560299 25.562863
58    1 0.0000  7.243310  8.560341 36.518375
59    1 0.0000  7.243271  8.560382 47.473888
60    1 0.0000  7.243233  8.560424 58.429401
61    1 0.0000  4.772311 12.840321  3.651838
62    1 0.0000  4.772273 12.840362 14.607350
63    1 0.0000  4.772234 12.840404 25.562863
64    1 0.0000  4.772196 12.840445 36.518375
65    1 0.0000  4.772157 12.840487 47.473888
66    1 0.0000  4.772119 12.840529 58.429401
67    1 0.0000  2.301197 17.120425  3.651838
68    1 0.0000  2.301159 17.120467 14.607350
69    1 0.0000  2.301120 17.120509 25.562863
70    1 0.0000  2.301082 17.120550 36.518375
71    1 0.0000  2.301043 17.120592 47.473888
72    1 0.0000  2.301005 17.120633 58.429401
73    1 0.0000 14.656776  4.280111  3.651838
74    1 0.0000 14.656738  4.280153 14.607350
75    1 0.0000 14.656700  4.280194 25.562863
76    1 0.0000 14.656661  4.280236 36.518375
77    1 0.0000 14.656623  4.280278 47.473888
78    1 0.0000 14.656584  4.280319 58.429401
79    1 0.0000 12.185663  8.560216  3.651838
80    1 0.0000 12.185624  8.560257 14.607350
81    1 0.0000 12.185586  8.560299 25.562863
82    1 0.0000 12.185547  8.560341 36.518375
83    1 0.0000 12.185509  8.560382 47.473888
84    1 0.0000 12.185470  8.560424 58.429401
85    1 0.0000  9.714549 12.840321  3.651838
86    1 0.0000  9.714510 12.840362 14.607350
87    1 0.0000  9.714472 12.840404 25.562863
88    1 0.0000  9.714433 12.840445 36.518375
89    1 0.0000  9.714395 12.840487 47.473888
90    1 0.0000  9.714356 12.840529 58.429401
91    1 0.0000  7.243435 17.120425  3.651838
92    1 0.0000  7.243396 17.120467 14.607350
93    1 0.0000  7.243358 17.120509 25.562863
94    1 0.0000  7.243319 17.120550 36.518375
95    1 0.0000  7.243281 17.120592 47.473888
96    1 0.0000  7.243242 17.120633 58.429401
97    1 0.0000  3.791612  1.992930  7.303675
98    1 0.0000  3.791573  1.992972 18.259188
99    1 0.0000  3.791535  1.993014 29.214700
100   1 0.0000  3.791496  1.993055 40.170213
101   1 0.0000  3.791458  1.993097 51.125726
102   1 0.0000  3.791419  1.993138 62.081238
103   1 0.0000  1.320498  6.273035  7.303675
104   1 0.0000  1.320459  6.273077 18.259188
105   1 0.0000  1.320421  6.273118 29.214700
106   1 0.0000  1.320382  6.273160 40.170213
107   1 0.0000  1.320344  6.273202 51.125726
108   1 0.0000  1.320305  6.273243 62.081238
109   1 0.0000 -1.150616 10.553140  7.303675
110   1 0.0000 -1.150655 10.553181 18.259188
111   1 0.0000 -1.150693 10.553223 29.214700
112   1 0.0000 -1.150732 10.553265 40.170213
113   1 0.0000 -1.150770 10.553306 51.125726
114   1 0.0000 -1.150809 10.553348 62.081238
115   1 0.0000 -3.621730 14.833244  7.303675
116   1 0.0000 -3.621769 14.833286 18.259188
117   1 0.0000 -3.621807 14.833328 29.214700
118   1 0.0000 -3.621846 14.833369 40.170213
119   1 0.0000 -3.621884 14.833411 51.125726
120   1 0.0000 -3.621923 14.833453 62.081238
121   1 0.0000  8.733849  1.992930  7.303675
122   1 0.0000  8.733811  1.992972 18.259188
123   1 0.0000  8.733772  1.993014 29.214700
124   1 0.0000  8.733734  1.993055 40.170213
125   1 0.0000  8.733695  1.993097 51.125726
126   1 0.0000  8.733657  1.993138 62.081238
127   1 0.0000  6.262735  6.273035  7.303675
128   1 0.0000  6.262697  6.273077 18.259188
129   1 0.0000  6.262658  6.273118 29.214700
130   1 0.0000  6.262620  6.273160 40.170213
131   1 0.0000  6.262581  6.273202 51.125726
132   1 0.0000  6.262543  6.273243 62.081238
133   1 0.0000  3.791621 10.553140  7.303675
134   1 0.0000  3.791583 10.553181 18.259188
135   1 0.0000  3.791544 10.553223 29.214700
136   1 0.0000  3.791506 10.553265 40.170213
137   1 0.0000  3.791467 10.553306 51.125726
138   1 0.0000  3.791429 10.553348 62.081238
139   1 0.0000  1.320507 14.833244  7.303675
140   1 0.0000  1.320469 14.833286 18.259188
141   1 0.0000  1.320430 14.833328 29.214700
142   1 0.0000  1.320392 14.833369 40.170213
143   1 0.0000  1.320353 14.833411 51.125726
144   1 0.0000  1.320315 14.833453 62.081238
145   1 0.0000 13.676086  1.992930  7.303675
146   1 0.0000 13.676048  1.992972 18.259188
147   1 0.0000 13.676010  1.993014 29.214700
148   1 0.0000 13.675971  1.993055 40.170213
149   1 0.0000 13.675933  1.993097 51.125726
150   1 0.0000 13.675894  1.993138 62.081238
151   1 0.0000 11.204972  6.273035  7.303675
152   1 0.0000 11.204934  6.273077 18.259188
153   1 0.0000 11.204896  6.273118 29.214700
154   1 0.0000 11.204857  6.273160 40.170213
155   1 0.0000 11.204819  6.273202 51.125726
156   1 0.0000 11.204780  6.273243 62.081238
157   1 0.0000  8.733859 10.553140  7.303675
158   1 0.0000  8.733820 10.553181 18.259188
159   1 0.0000  8.733782 10.553223 29.214700
160   1 0.0000  8.733743 10.553265 40.170213
161   1 0.0000  8.733705 10.553306 51.125726
162   1 0.0000  8.733666 10.553348 62.081238
163   1 0.0000  6.262745 14.833244  7.303675
164   1 0.0000  6.262706 14.833286 18.259188
165   1 0.0000  6.262668 14.833328 29.214700
166   1 0.0000  6.262629 14.833369 40.170213
167   1 0.0000  6.262591 14.833411 51.125726
168   1 0.0000  6.262552 14.833453 62.081238
169   1 0.0000 18.618324  1.992930  7.303675
170   1 0.0000 18.618285  1.992972 18.259188
171   1 0.0000 18.618247  1.993014 29.214700
172   1 0.0000 18.618209  1.993055 40.170213
173   1 0.0000 18.618170  1.993097 51.125726
174   1 0.0000 18.618132  1.993138 62.081238
175   1 0.0000 16.147210  6.273035  7.303675
176   1 0.0000 16.147171  6.273077 18.259188
177   1 0.0000 16.147133  6.273118 29.214700
178   1 0.0000 16.147095  6.273160 40.170213
179   1 0.0000 16.147056  6.273202 51.125726
180   1 0.0000 16.147018  6.273243 62.081238
181   1 0.0000 13.676096 10.553140  7.303675
182   1 0.0000 13.676057 10.553181 18.259188
183   1 0.0000 13.676019 10.553223 29.214700
184   1 0.0000 13.675981 10.553265 40.170213
185   1 0.0000 13.675942 10.553306 51.125726
186   1 0.0000 13.675904 10.553348 62.081238
187   1 0.0000 11.204982 14.833244  7.303675
188   1 0.0000 11.204944 14.833286 18.259188
189   1 0.0000 11.204905 14.833328 29.214700
190   1 0.0000 11.204867 14.833369 40.170213
191   1 0.0000 11.204828 14.833411 51.125726
192   1 0.0000 11.204790 14.833453 62.081238
193   1 0.0000  1.320479  2.287247 10.955509
194   1 0.0000  1.320440  2.287289 21.911022
195   1 0.0000  1.320402  2.287330 32.866534
196   1 0.0000  1.320364  2.287372 43.822047
197   1 0.0000  1.320325  2.287413 54.777559
198   1 0.0000  1.320287  2.287455 65.733072
199   1 0.0000 -1.150635  6.567352 10.955509
200   1 0.0000 -1.150673  6.567393 21.911022
201   1 0.0000 -1.150712  6.567435 32.866534
202   1 0.0000 -1.150750  6.567477 43.822047
203   1 0.0000 -1.150789  6.567518 54.777559
204   1 0.0000 -1.150827  6.567560 65.733072
205   1 0.0000 -3.621749 10.847456 10.955509
206   1 0.0000 -3.621787 10.847498 21.911022
207   1 0.0000 -3.621826 10.847540 32.866534
208   1 0.0000 -3.621864 10.847581 43.822047
209   1 0.0000 -3.621903 10.847623 54.777559
210   1 0.0000 -3.621941 10.847665 65.733072
211   1 0.0000 -6.092863 15.127561 10.955509
212   1 0.0000 -6.092901 15.127603 21.911022
213   1 0.0000 -6.092940 15.127644 32.866534
214   1 0.0000 -6.092978 15.127686 43.822047
215   1 0.0000 -6.093017 15.127728 54.777559
216   1 0.0000 -6.093055 15.127769 65.733072
217   1 0.0000  6.262716  2.287247 10.955509
218   1 0.0000  6.262678  2.287289 21.911022
219   1 0.0000  6.262639  2.287330 32.866534
220   1 0.0000  6.262601  2.287372 43.822047
221   1 0.0000  6.262563  2.287413 54.777559
222   1 0.0000  6.262524  2.287455 65.733072
223   1 0.0000  3.791602  6.567352 10.955509
224   1 0.0000  3.791564  6.567393 21.911022
225   1 0.0000  3.791525  6.567435 32.866534
226   1 0.0000  3.791487  6.567477 43.822047
227   1 0.0000  3.791449  6.567518 54.777559
228   1 0.0000  3.791410  6.567560 65.733072
229   1 0.0000  1.320488 10.847456 10.955509
230   1 0.0000  1.320450 10.847498 21.911022
231   1 0.0000  1.320412 10.847540 32.866534
232   1 0.0000  1.320373 10.847581 43.822047
233   1 0.0000  1.320335 10.847623 54.777559
234   1 0.0000  1.320296 10.847665 65.733072
235   1 0.0000 -1.150626 15.127561 10.955509
236   1 0.0000 -1.150664 15.127603 21.911022
237   1 0.0000 -1.150702 15.127644 32.866534
238   1 0.0000 -1.150741 15.127686 43.822047
239   1 0.0000 -1.150779 15.127728 54.777559
240   1 0.0000 -1.150818 15.127769 65.733072
241   1 0.0000 11.204954  2.287247 10.955509
242   1 0.0000 11.204915  2.287289 21.911022
243   1 0.0000 11.204877  2.287330 32.866534
244   1 0.0000 11.204838  2.287372 43.822047
245   1 0.0000 11.204800  2.287413 54.777559
246   1 0.0000 11.204762  2.287455 65.733072
247   1 0.0000  8.733840  6.567352 10.955509
248   1 0.0000  8.733801  6.567393 21.911022
249   1 0.0000  8.733763  6.567435 32.866534
250   1 0.0000  8.733724  6.567477 43.822047
251   1 0.0000  8.733686  6.567518 54.777559
252   1 0.0000  8.733648  6.567560 65.733072
253   1 0.0000  6.262726 10.847456 10.955509
254   1 0.0000  6.262687 10.847498 21.911022
255   1 0.0000  6.262649 10.847540 32.866534
256   1 0.0000  6.262611 10.847581 43.822047
257   1 0.0000  6.262572 10.847623 54.777559
258   1 0.0000  6.262534 10.847665 65.733072
259   1 0.0000  3.791612 15.127561 10.955509
260   1 0.0000  3.791573 15.127603 21.911022
261   1 0.0000  3.791535 15.127644 32.866534
262   1 0.0000  3.791497 15.127686 43.822047
263   1 0.0000  3.791458 15.127728 54.777559
264   1 0.0000  3.791420 15.127769 65.733072
265   1 0.0000 16.147191  2.287247 10.955509
266   1 0.0000 16.147153  2.287289 21.911022
267   1 0.0000 16.147114  2.287330 32.866534
268   1 0.0000 16.147076  2.287372 43.822047
269   1 0.0000 16.147037  2.287413 54.777559
270   1 0.0000 16.146999  2.287455 65.733072
271   1 0.0000 13.676077  6.567352 10.955509
272   1 0.0000 13.676039  6.567393 21.911022
273   1 0.0000 13.676000  6.567435 32.866534
274   1 0.0000 13.675962  6.567477 43.822047
275   1 0.0000 13.675923  6.567518 54.777559
276   1 0.0000 13.675885  6.567560 65.733072
277   1 0.0000 11.204963 10.847456 10.955509
278   1 0.0000 11.204925 10.847498 21.911022
279   1 0.0000 11.204886 10.847540 32.866534
280   1 0.0000 11.204848 10.847581 43.822047
281   1 0.0000 11.204810 10.847623 54.777559
282   1 0.0000 11.204771 10.847665 65.733072
283   1 0.0000  8.733849 15.127561 10.955509
284   1 0.0000  8.733811 15.127603 21.911022
285   1 0.0000  8.733772 15.127644 32.866534
286   1 0.0000  8.733734 15.127686 43.822047
287   1 0.0000  8.733696 15.127728 54.777559
288   1 0.0000  8.733657 15.127769 65.733072
289   2 0.0000 -0.169491  4.280136  9.129576
290   2 0.0000 -0.169530  4.280178 20.085089
291   2 0.0000 -0.169568  4.280219 31.040601
292   2 0.0000 -0.169607  4.280261 41.996114
293   2 0.0000 -0.169645  4.280303 52.951627
294   2 0.0000 -0.169684  4.280344 63.907139
295   2 0.0000 -2.640605  8.560241  9.129576
296   2 0.0000 -2.640644  8.560282 20.085089
297   2 0.0000 -2.640682  8.560324 31.040601
298   2 0.0000 -2.640721  8.560366 41.996114
299   2 0.0000 -2.640759  8.560407 52.951627
300   2 0.0000 -2.640798  8.560449 63.907139
301   2 0.0000 -5.111719 12.840346  9.129576
302   2 0.0000 -5.111758 12.840387 20.085089
303   2 0.0000 -5.111796 12.840429 31.040601
304   2 0.0000 -5.111835 12.840470 41.996114
305   2 0.0000 -5.111873 12.840512 52.951627
306   2 0.0000 -5.111912 12.840554 63.907139
307   2 0.0000 -7.582833 17.120450  9.129576
308   2 0.0000 -7.582872 17.120492 20.085089
309   2 0.0000 -7.582910 17.120534 31.040601
310   2 0.0000 -7.582949 17.120575 41.996114
311   2 0.0000 -7.582987 17.120617 52.951627
312   2 0.0000 -7.583026 17.120658 63.907139
313   2 0.0000  4.772746  4.280136  9.129576
314   2 0.0000  4.772708  4.280178 20.085089
315   2 0.0000  4.772669  4.280219 31.040601
316   2 0.0000  4.772631  4.280261 41.996114
317   2 0.0000  4.772592  4.280303 52.951627
318   2 0.0000  4.772554  4.280344 63.907139
319   2 0.0000  2.301632  8.560241  9.129576
320   2 0.0000  2.301594  8.560282 20.085089
321   2 0.0000  2.301555  8.560324 31.040601
322   2 0.0000  2.301517  8.560366 41.996114
323   2 0.0000  2.301478  8.560407 52.951627
324   2 0.0000  2.301440  8.560449 63.907139
325   2 0.0000 -0.169482 12.840346  9.129576
326   2 0.0000 -0.169520 12.840387 20.085089
327   2 0.0000 -0.169559 12.840429 31.040601
328   2 0.0000 -0.169597 12.840470 41.996114
329   2 0.0000 -0.169636 12.840512 52.951627
330   2 0.0000 -0.169674 12.840554 63.907139
331   2 0.0000 -2.640596 17.120450  9.129576
332   2 0.0000 -2.640634 17.120492 20.085089
333   2 0.0000 -2.640673 17.120534 31.040601
334   2 0.0000 -2.640711 17.120575 41.996114
335   2 0.0000 -2.640750 17.120617 52.951627
336   2 0.0000 -2.640788 17.120658 63.907139
337   2 0.0000  9.714983  4.280136  9.129576
338   2 0.0000  9.714945  4.280178 20.085089
339   2 0.0000  9.714907  4.280219 31.040601
340   2 0.0000  9.714868  4.280261 41.996114
341   2 0.0000  9.714830  4.280303 52.951627
342   2 0.0000  9.714791  4.280344 63.907139
343   2 0.0000  7.243869  8.560241  9.129576
344   2 0.0000  7.243831  8.560282 20.085089
345   2 0.0000  7.243793  8.560324 31.040601
346   2 0.0000  7.243754  8.560366 41.996114
347   2 0.0000  7.243716  8.560407 52.951627
348   2 0.0000  7.243677  8.560449 63.907139
349   2 0.0000  4.772756 12.840346  9.129576
350   2 0.0000  4.772717 12.840387 20.085089
351   2 0.0000  4.772679 12.840429 31.040601
352   2 0.0000  4.772640 12.840470 41.996114
353   2 0.0000  4.772602 12.840512 52.951627
354   2 0.0000  4.772563 12.840554 63.907139
355   2 0.0000  2.301642 17.120450  9.129576
356   2 0.0000  2.301603 17.120492 20.085089
357   2 0.0000  2.301565 17.120534 31.040601
358   2 0.0000  2.301526 17.120575 41.996114
359   2 0.0000  2.301488 17.120617 52.951627
360   2 0.0000  2.301449 17.120658 63.907139
361   2 0.0000 14.657221  4.280136  9.129576
362   2 0.0000 14.657182  4.280178 20.085089
363   2 0.0000 14.657144  4.280219 31.040601
364   2 0.0000 14.657106  4.280261 41.996114
365   2 0.0000 14.657067  4.280303 52.951627
366   2 0.0000 14.657029  4.280344 63.907139
367   2 0.0000 12.186107  8.560241  9.129576
368   2 0.0000 12.186068  8.560282 20.085089
369   2 0.0000 12.186030  8.560324 31.040601
370   2 0.0000 12.185992  8.560366 41.996114
371   2 0.0000 12.185953  8.560407 52.951627
372   2 0.0000 12.185915  8.560449 63.907139
373   2 0.0000  9.714993 12.840346  9.129576
374   2 0.0000  9.714954 12.840387 20.085089
375   2 0.0000  9.714916 12.840429 31.040601
376   2 0.0000  9.714878 12.840470 41.996114
377   2 0.0000  9.714839 12.840512 52.951627
378   2 0.0000  9.714801 12.840554 63.907139
379   2 0.0000  7.243879 17.120450  9.129576
380   2 0.0000  7.243841 17.120492 20.085089
381   2 0.0000  7.243802 17.120534 31.040601
382   2 0.0000  7.243764 17.120575 41.996114
383   2 0.0000  7.243725 17.120617 52.951627
384   2 0.0000  7.243687 17.120658 63.907139
385   2 0.0000  3.791402  1.993294  1.825933
386   2 0.0000  3.791364  1.993335 12.781445
387   2 0.0000  3.791325  1.993377 23.736958
388   2 0.0000  3.791287  1.993419 34.692471
389   2 0.0000  3.791248  1.993460 45.647983
390   2 0.0000  3.791210  1.993502 56.603496
391   2 0.0000  1.320288  6.273398  1.825933
392   2 0.0000  1.320250  6.273440 12.781445
393   2 0.0000  1.320211  6.273482 23.736958
394   2 0.0000  1.320173  6.273523 34.692471
395   2 0.0000  1.320134  6.273565 45.647983
396   2 0.0000  1.320096  6.273607 56.603496
397   2 0.0000 -1.150826 10.553503  1.825933
398   2 0.0000 -1.150864 10.553545 12.781445
399   2 0.0000 -1.150903 10.553586 23.736958
400   2 0.0000 -1.150941 10.553628 34.692471
401   2 0.0000 -1.150980 10.553670 45.647983
402   2 0.0000 -1.151018 10.553711 56.603496
403   2 0.0000 -3.621940 14.833608  1.825933
404   2 0.0000 -3.621978 14.833649 12.781445
405   2 0.0000 -3.622017 14.833691 23.736958
406   2 0.0000 -3.622055 14.833733 34.692471
407   2 0.0000 -3.622094 14.833774 45.647983
408   2 0.0000 -3.622132 14.833816 56.603496
409   2 0.0000  8.733639  1.993294  1.825933
410   2 0.0000  8.733601  1.993335 12.781445
411   2 0.0000  8.733563  1.993377 23.736958
412   2 0.0000  8.733524  1.993419 34.692471
413   2 0.0000  8.733486  1.993460 45.647983
414   2 0.0000  8.733447  1.993502 56.603496
415   2 0.0000  6.262526  6.273398  1.825933
416   2 0.0000  6.262487  6.273440 12.781445
417   2 0.0000  6.262449  6.273482 23.736958
418   2 0.0000  6.262410  6.273523 34.692471
419   2 0.0000  6.262372  6.273565 45.647983
420   2 0.0000  6.262333  6.273607 56.603496
421   2 0.0000  3.791412 10.553503  1.825933
422   2 0.0000  3.791373 10.553545 12.781445
423   2 0.0000  3.791335 10.553586 23.736958
424   2 0.0000  3.791296 10.553628 34.692471
425   2 0.0000  3.791258 10.553670 45.647983
426   2 0.0000  3.791219 10.553711 56.603496
427   2 0.0000  1.320298 14.833608  1.825933
428   2 0.0000  1.320259 14.833649 12.781445
429   2 0.0000  1.320221 14.833691 23.736958
430   2 0.0000  1.320182 14.833733 34.692471
431   2 0.0000  1.320144 14.833774 45.647983
432   2 0.0000  1.320105 14.833816 56.603496
433   2 0.0000 13.675877  1.993294  1.825933
434   2 0.0000 13.675838  1.993335 12.781445
435   2 0.0000 13.675800  1.993377 23.736958
436   2 0.0000 13.675762  1.993419 34.692471
437   2 0.0000 13.675723  1.993460 45.647983
438   2 0.0000 13.675685  1.993502 56.603496
439   2 0.0000 11.204763  6.273398  1.825933
440   2 0.0000 11.204724  6.273440 12.781445
441   2 0.0000 11.204686  6.273482 23.736958
442   2 0.0000 11.204648  6.273523 34.692471
443   2 0.0000 11.204609  6.273565 45.647983
444   2 0.0000 11.204571  6.273607 56.603496
445   2 0.0000  8.733649 10.553503  1.825933
446   2 0.0000  8.733611 10.553545 12.781445
447   2 0.0000  8.733572 10.553586 23.736958
448   2 0.0000  8.733534 10.553628 34.692471
449   2 0.0000  8.733495 10.553670 45.647983
450   2 0.0000  8.733457 10.553711 56.603496
451   2 0.0000  6.262535 14.833608  1.825933
452   2 0.0000  6.262497 14.833649 12.781445
453   2 0.0000  6.262458 14.833691 23.736958
454   2 0.0000  6.262420 14.833733 34.692471
455   2 0.0000  6.262381 14.833774 45.647983
456   2 0.0000  6.262343 14.833816 56.603496
457   2 0.0000 18.618114  1.993294  1.825933
458   2 0.0000 18.618076  1.993335 12.781445
459   2 0.0000 18.618037  1.993377 23.736958
460   2 0.0000 18.617999  1.993419 34.692471
461   2 0.0000 18.617961  1.993460 45.647983
462   2 0.0000 18.617922  1.993502 56.603496
463   2 0.0000 16.147000  6.273398  1.825933
464   2 0.0000 16.146962  6.273440 12.781445
465   2 0.0000 16.146923  6.273482 23.736958
466   2 0.0000 16.146885  6.273523 34.692471
467   2 0.0000 16.146847  6.273565 45.647983
468   2 0.0000 16.146808  6.273607 56.603496
469   2 0.0000 13.675886 10.553503  1.825933
470   2 0.0000 13.675848 10.553545 12.781445
471   2 0.0000 13.675810 10.553586 23.736958
472   2 0.0000 13.675771 10.553628 34.692471
473   2 0.0000 13.675733 10.553670 45.647983
474   2 0.0000 13.675694 10.553711 56.603496
475   2 0.0000 11.204772 14.833608  1.825933
476   2 0.0000 11.204734 14.833649 12.781445
477   2 0.0000 11.204696 14.833691 23.736958
478   2 0.0000 11.204657 14.833733 34.692471
479   2 0.0000 11.204619 14.833774 45.647983
480   2 0.0000 11.204580 14.833816 56.603496
481   2 0.0000  1.320276  2.286831  5.477757
482   2 0.0000  1.320238  2.286873 16.433269
483   2 0.0000  1.320199  2.286914 27.388782
484   2 0.0000  1.320161  2.286956 38.344295
485   2 0.0000  1.320123  2.286997 49.299807
486   2 0.0000  1.320084  2.287039 60.255320
487   2 0.0000 -1.150838  6.566936  5.477757
488   2 0.0000 -1.150876  6.566977 16.433269
489   2 0.0000 -1.150915  6.567019 27.388782
490   2 0.0000 -1.150953  6.567061 38.344295
491   2 0.0000 -1.150991  6.567102 49.299807
492   2 0.0000 -1.151030  6.567144 60.255320
493   2 0.0000 -3.621952 10.847040  5.477757
494   2 0.0000 -3.621990 10.847082 16.433269
495   2 0.0000 -3.622028 10.847124 27.388782
496   2 0.0000 -3.622067 10.847165 38.344295
497   2 0.0000 -3.622105 10.847207 49.299807
498   2 0.0000 -3.622144 10.847249 60.255320
499   2 0.0000 -6.093066 15.127145  5.477757
500   2 0.0000 -6.093104 15.127187 16.433269
501   2 0.0000 -6.093142 15.127228 27.388782
502   2 0.0000 -6.093181 15.127270 38.344295
503   2 0.0000 -6.093219 15.127312 49.299807
504   2 0.0000 -6.093258 15.127353 60.255320
505   2 0.0000  6.262514  2.286831  5.477757
506   2 0.0000  6.262475  2.286873 16.433269
507   2 0.0000  6.262437  2.286914 27.388782
508   2 0.0000  6.262398  2.286956 38.344295
509   2 0.0000  6.262360  2.286997 49.299807
510   2 0.0000  6.262322  2.287039 60.255320
511   2 0.0000  3.791400  6.566936  5.477757
512   2 0.0000  3.791361  6.566977 16.433269
513   2 0.0000  3.791323  6.567019 27.388782
514   2 0.0000  3.791284  6.567061 38.344295
515   2 0.0000  3.791246  6.567102 49.299807
516   2 0.0000  3.791208  6.567144 60.255320
517   2 0.0000  1.320286 10.847040  5.477757
518   2 0.0000  1.320247 10.847082 16.433269
519   2 0.0000  1.320209 10.847124 27.388782
520   2 0.0000  1.320171 10.847165 38.344295
521   2 0.0000  1.320132 10.847207 49.299807
522   2 0.0000  1.320094 10.847249 60.255320
523   2 0.0000 -1.150828 15.127145  5.477757
524   2 0.0000 -1.150867 15.127187 16.433269
525   2 0.0000 -1.150905 15.127228 27.388782
526   2 0.0000 -1.150943 15.127270 38.344295
527   2 0.0000 -1.150982 15.127312 49.299807
528   2 0.0000 -1.151020 15.127353 60.255320
529   2 0.0000 11.204751  2.286831  5.477757
530   2 0.0000 11.204713  2.286873 16.433269
531   2 0.0000 11.204674  2.286914 27.388782
532   2 0.0000 11.204636  2.286956 38.344295
533   2 0.0000 11.204597  2.286997 49.299807
534   2 0.0000 11.204559  2.287039 60.255320
535   2 0.0000  8.733637  6.566936  5.477757
536   2 0.0000  8.733599  6.566977 16.433269
537   2 0.0000  8.733560  6.567019 27.388782
538   2 0.0000  8.733522  6.567061 38.344295
539   2 0.0000  8.733483  6.567102 49.299807
540   2 0.0000  8.733445  6.567144 60.255320
541   2 0.0000  6.262523 10.847040  5.477757
542   2 0.0000  6.262485 10.847082 16.433269
543   2 0.0000  6.262446 10.847124 27.388782
544   2 0.0000  6.262408 10.847165 38.344295
545   2 0.0000  6.262370 10.847207 49.299807
546   2 0.0000  6.262331 10.847249 60.255320
547   2 0.0000  3.791409 15.127145  5.477757
548   2 0.0000  3.791371 15.127187 16.433269
549   2 0.0000  3.791332 15.127228 27.388782
550   2 0.0000  3.791294 15.127270 38.344295
551   2 0.0000  3.791256 15.127312 49.299807
552   2 0.0000  3.791217 15.127353 60.255320
553   2 0.0000 16.146989  2.286831  5.477757
554   2 0.0000 16.146950  2.286873 16.433269
555   2 0.0000 16.146912  2.286914 27.388782
556   2 0.0000 16.146873  2.286956 38.344295
557   2 0.0000 16.146835  2.286997 49.299807
558   2 0.0000 16.146796  2.287039 60.255320
559   2 0.0000 13.675875  6.566936  5.477757
560   2 0.0000 13.675836  6.566977 16.433269
561   2 0.0000 13.675798  6.567019 27.388782
562   2 0.0000 13.675759  6.567061 38.344295
563   2 0.0000 13.675721  6.567102 49.299807
564   2 0.0000 13.675682  6.567144 60.255320
565   2 0.0000 11.204761 10.847040  5.477757
566   2 0.0000 11.204722 10.847082 16.433269
567   2 0.0000 11.204684 10.847124 27.388782
568   2 0.0000 11.204645 10.847165 38.344295
569   2 0.0000 11.204607 10.847207 49.299807
570   2 0.0000 11.204569 10.847249 60.255320
571   2 0.0000  8.733647 15.127145  5.477757
572   2 0.0000  8.733608 15.127187 16.433269
573   2 0.0000  8.733570 15.127228 27.388782
574   2 0.0000  8.733531 15.127270 38.344295
575   2 0.0000  8.733493 15.127312 49.299807
576   2 0.0000  8.733455 15.127353 60.255320
577   3 0.0000  0.254638  1.776494  1.279828
578   3 0.0000  0.254599  1.776535 12.235341
579   3 0.0000  0.254561  1.776577 23.190854
580   3 0.0000  0.254523  1.776619 34.146366
581   3 0.0000  0.254484  1.776660 45.101879
582   3 0.0000  0.254446  1.776702 56.057392
583   3 0.0000 -2.216476  6.056598  1.279828
584   3 0.0000 -2.216514  6.056640 12.235341
585   3 0.0000 -2.216553  6.056682 23.190854
586   3 0.0000 -2.216591  6.056723 34.146366
587   3 0.0000 -2.216630  6.056765 45.101879
588   3 0.0000 -2.216668  6.056807 56.057392
589   3 0.0000 -4.687590 10.336703  1.279828
590   3 0.0000 -4.687628 10.336745 12.235341
591   3 0.0000 -4.687667 10.336786 23.190854
592   3 0.0000 -4.687705 10.336828 34.146366
593   3 0.0000 -4.687744 10.336870 45.101879
594   3 0.0000 -4.687782 10.336911 56.057392
595   3 0.0000 -7.158704 14.616808  1.279828
596   3 0.0000 -7.158742 14.616850 12.235341
597   3 0.0000 -7.158781 14.616891 23.190854
598   3 0.0000 -7.158819 14.616933 34.146366
599   3 0.0000 -7.158858 14.616974 45.101879
600   3 0.0000 -7.158896 14.617016 56.057392
601   3 0.0000  5.196875  1.776494  1.279828
602   3 0.0000  5.196837  1.776535 12.235341
603   3 0.0000  5.196798  1.776577 23.190854
604   3 0.0000  5.196760  1.776619 34.146366
605   3 0.0000  5.196722  1.776660 45.101879
606   3 0.0000  5.196683  1.776702 56.057392
607   3 0.0000  2.725761  6.056598  1.279828
608   3 0.0000  2.725723  6.056640 12.235341
609   3 0.0000  2.725685  6.056682 23.190854
610   3 0.0000  2.725646  6.056723 34.146366
611   3 0.0000  2.725608  6.056765 45.101879
612   3 0.0000  2.725569  6.056807 56.057392
613   3 0.0000  0.254647 10.336703  1.279828
614   3 0.0000  0.254609 10.336745 12.235341
615   3 0.0000  0.254571 10.336786 23.190854
616   3 0.0000  0.254532 10.336828 34.146366
617   3 0.0000  0.254494 10.336870 45.101879
618   3 0.0000  0.254455 10.336911 56.057392
619   3 0.0000 -2.216467 14.616808  1.279828
620   3 0.0000 -2.216505 14.616850 12.235341
621   3 0.0000 -2.216543 14.616891 23.190854
622   3 0.0000 -2.216582 14.616933 34.146366
623   3 0.0000 -2.216620 14.616974 45.101879
624   3 0.0000 -2.216659 14.617016 56.057392
625   3 0.0000 10.139113  1.776494  1.279828
626   3 0.0000 10.139074  1.776535 12.235341
627   3 0.0000 10.139036  1.776577 23.190854
628   3 0.0000 10.138997  1.776619 34.146366
629   3 0.0000 10.138959  1.776660 45.101879
630   3 0.0000 10.138921  1.776702 56.057392
631   3 0.0000  7.667999  6.056598  1.279828
632   3 0.0000  7.667960  6.056640 12.235341
633   3 0.0000  7.667922  6.056682 23.190854
634   3 0.0000  7.667884  6.056723 34.146366
635   3 0.0000  7.667845  6.056765 45.101879
636   3 0.0000  7.667807  6.056807 56.057392
637   3 0.0000  5.196885 10.336703  1.279828
638   3 0.0000  5.196846 10.336745 12.235341
639   3 0.0000  5.196808 10.336786 23.190854
640   3 0.0000  5.196770 10.336828 34.146366
641   3 0.0000  5.196731 10.336870 45.101879
642   3 0.0000  5.196693 10.336911 56.057392
643   3 0.0000  2.725771 14.616808  1.279828
644   3 0.0000  2.725732 14.616850 12.235341
645   3 0.0000  2.725694 14.616891 23.190854
646   3 0.0000  2.725656 14.616933 34.146366
647   3 0.0000  2.725617 14.616974 45.101879
648   3 0.0000  2.725579 14.617016 56.057392
649   3 0.0000 15.081350  1.776494  1.279828
650   3 0.0000 15.081312  1.776535 12.235341
651   3 0.0000 15.081273  1.776577 23.190854
652   3 0.0000 15.081235  1.776619 34.146366
653   3 0.0000 15.081196  1.776660 45.101879
654   3 0.0000 15.081158  1.776702 56.057392
655   3 0.0000 12.610236  6.056598  1.279828
656   3 0.0000 12.610198  6.056640 12.235341
657   3 0.0000 12.610159  6.056682 23.190854
658   3 0.0000 12.610121  6.056723 34.146366
659   3 0.0000 12.610082  6.056765 45.101879
660   3 0.0000 12.610044  6.056807 56.057392