Generated by pymatgen.io.lammps.data.LammpsData

4032  atoms

   3  atom types

0.000000 55.134494  xlo xhi
0.000000 28.079071  ylo yhi
0.000000 37.342318  zlo zhi
47.448690 71.173033 19.481483  xy xz yz

Masses

1  137.3270
2   10.8110
3   15.9994

Atoms

1     1 0.0000  31.865279  8.722165  5.287425
2     1 0.0000  43.727451 11.969078 11.511144
3     1 0.0000  55.589623 15.215992 17.734864
4     1 0.0000  67.451795 18.462906 23.958584
5     1 0.0000  79.313967 21.709820 30.182303
6     1 0.0000  91.176140 24.956734 36.406023
7     1 0.0000  43.727451 15.741932  5.287425
8     1 0.0000  55.589624 18.988846 11.511144
9     1 0.0000  67.451796 22.235760 17.734864
10    1 0.0000  79.313968 25.482674 23.958584
11    1 0.0000  91.176140 28.729588 30.182303
12    1 0.0000 103.038312 31.976502 36.406023
13    1 0.0000  55.589624 22.761700  5.287425
14    1 0.0000  67.451796 26.008614 11.511144
15    1 0.0000  79.313968 29.255528 17.734864
16    1 0.0000  91.176140 32.502442 23.958584
17    1 0.0000 103.038313 35.749355 30.182303
18    1 0.0000 114.900485 38.996269 36.406023
19    1 0.0000  67.451797 29.781467  5.287425
20    1 0.0000  79.313969 33.028381 11.511144
21    1 0.0000  91.176141 36.275295 17.734864
22    1 0.0000 103.038313 39.522209 23.958584
23    1 0.0000 114.900485 42.769123 30.182303
24    1 0.0000 126.762657 46.016037 36.406023
25    1 0.0000  45.648902  8.722165  5.287425
26    1 0.0000  57.511074 11.969078 11.511144
27    1 0.0000  69.373247 15.215992 17.734864
28    1 0.0000  81.235419 18.462906 23.958584
29    1 0.0000  93.097591 21.709820 30.182303
30    1 0.0000 104.959763 24.956734 36.406023
31    1 0.0000  57.511075 15.741932  5.287425
32    1 0.0000  69.373247 18.988846 11.511144
33    1 0.0000  81.235419 22.235760 17.734864
34    1 0.0000  93.097591 25.482674 23.958584
35    1 0.0000 104.959763 28.729588 30.182303
36    1 0.0000 116.821936 31.976502 36.406023
37    1 0.0000  69.373247 22.761700  5.287425
38    1 0.0000  81.235420 26.008614 11.511144
39    1 0.0000  93.097592 29.255528 17.734864
40    1 0.0000 104.959764 32.502442 23.958584
41    1 0.0000 116.821936 35.749355 30.182303
42    1 0.0000 128.684108 38.996269 36.406023
43    1 0.0000  81.235420 29.781467  5.287425
44    1 0.0000  93.097592 33.028381 11.511144
45    1 0.0000 104.959764 36.275295 17.734864
46    1 0.0000 116.821936 39.522209 23.958584
47    1 0.0000 128.684109 42.769123 30.182303
48    1 0.0000 140.546281 46.016037 36.406023
49    1 0.0000  59.432526  8.722165  5.287425
50    1 0.0000  71.294698 11.969078 11.511144
51    1 0.0000  83.156870 15.215992 17.734864
52    1 0.0000  95.019042 18.462906 23.958584
53    1 0.0000 106.881214 21.709820 30.182303
54    1 0.0000 118.743386 24.956734 36.406023
55    1 0.0000  71.294698 15.741932  5.287425
56    1 0.0000  83.156870 18.988846 11.511144
57    1 0.0000  95.019043 22.235760 17.734864
58    1 0.0000 106.881215 25.482674 23.958584
59    1 0.0000 118.743387 28.729588 30.182303
60    1 0.0000 130.605559 31.976502 36.406023
61    1 0.0000  83.156871 22.761700  5.287425
62    1 0.0000  95.019043 26.008614 11.511144
63    1 0.0000 106.881215 29.255528 17.734864
64    1 0.0000 118.743387 32.502442 23.958584
65    1 0.0000 130.605559 35.749355 30.182303
66    1 0.0000 142.467732 38.996269 36.406023
67    1 0.0000  95.019044 29.781467  5.287425
68    1 0.0000 106.881216 33.028381 11.511144
69    1 0.0000 118.743388 36.275295 17.734864
70    1 0.0000 130.605560 39.522209 23.958584
71    1 0.0000 142.467732 42.769123 30.182303
72    1 0.0000 154.329904 46.016037 36.406023
73    1 0.0000  73.216149  8.722165  5.287425
74    1 0.0000  85.078321 11.969078 11.511144
75    1 0.0000  96.940494 15.215992 17.734864
76    1 0.0000 108.802666 18.462906 23.958584
77    1 0.0000 120.664838 21.709820 30.182303
78    1 0.0000 132.527010 24.956734 36.406023
79    1 0.0000  85.078322 15.741932  5.287425
80    1 0.0000  96.940494 18.988846 11.511144
81    1 0.0000 108.802666 22.235760 17.734864
82    1 0.0000 120.664838 25.482674 23.958584
83    1 0.0000 132.527010 28.729588 30.182303
84    1 0.0000 144.389182 31.976502 36.406023
85    1 0.0000  96.940494 22.761700  5.287425
86    1 0.0000 108.802667 26.008614 11.511144
87    1 0.0000 120.664839 29.255528 17.734864
88    1 0.0000 132.527011 32.502442 23.958584
89    1 0.0000 144.389183 35.749355 30.182303
90    1 0.0000 156.251355 38.996269 36.406023
91    1 0.0000 108.802667 29.781467  5.287425
92    1 0.0000 120.664839 33.028381 11.511144
93    1 0.0000 132.527011 36.275295 17.734864
94    1 0.0000 144.389183 39.522209 23.958584
95    1 0.0000 156.251356 42.769123 30.182303
96    1 0.0000 168.113528 46.016037 36.406023
97    1 0.0000  24.396673  6.677858  4.048155
98    1 0.0000  36.258846  9.924772 10.271874
99    1 0.0000  48.121018 13.171686 16.495594
100   1 0.0000  59.983190 16.418600 22.719314
101   1 0.0000  71.845362 19.665513 28.943033
102   1 0.0000  83.707534 22.912427 35.166753
103   1 0.0000  36.258846 13.697625  4.048155
104   1 0.0000  48.121018 16.944539 10.271874
105   1 0.0000  59.983190 20.191453 16.495594
106   1 0.0000  71.845362 23.438367 22.719314
107   1 0.0000  83.707535 26.685281 28.943033
108   1 0.0000  95.569707 29.932195 35.166753
109   1 0.0000  48.121019 20.717393  4.048155
110   1 0.0000  59.983191 23.964307 10.271874
111   1 0.0000  71.845363 27.211221 16.495594
112   1 0.0000  83.707535 30.458135 22.719314
113   1 0.0000  95.569707 33.705049 28.943033
114   1 0.0000 107.431879 36.951963 35.166753
115   1 0.0000  59.983191 27.737161  4.048155
116   1 0.0000  71.845363 30.984075 10.271874
117   1 0.0000  83.707535 34.230988 16.495594
118   1 0.0000  95.569708 37.477902 22.719314
119   1 0.0000 107.431880 40.724816 28.943033
120   1 0.0000 119.294052 43.971730 35.166753
121   1 0.0000  38.180297  6.677858  4.048155
122   1 0.0000  50.042469  9.924772 10.271874
123   1 0.0000  61.904641 13.171686 16.495594
124   1 0.0000  73.766813 16.418600 22.719314
125   1 0.0000  85.628985 19.665513 28.943033
126   1 0.0000  97.491158 22.912427 35.166753
127   1 0.0000  50.042470 13.697625  4.048155
128   1 0.0000  61.904642 16.944539 10.271874
129   1 0.0000  73.766814 20.191453 16.495594
130   1 0.0000  85.628986 23.438367 22.719314
131   1 0.0000  97.491158 26.685281 28.943033
132   1 0.0000 109.353330 29.932195 35.166753
133   1 0.0000  61.904642 20.717393  4.048155
134   1 0.0000  73.766814 23.964307 10.271874
135   1 0.0000  85.628986 27.211221 16.495594
136   1 0.0000  97.491158 30.458135 22.719314
137   1 0.0000 109.353331 33.705049 28.943033
138   1 0.0000 121.215503 36.951963 35.166753
139   1 0.0000  73.766815 27.737161  4.048155
140   1 0.0000  85.628987 30.984075 10.271874
141   1 0.0000  97.491159 34.230988 16.495594
142   1 0.0000 109.353331 37.477902 22.719314
143   1 0.0000 121.215503 40.724816 28.943033
144   1 0.0000 133.077675 43.971730 35.166753
145   1 0.0000  51.963920  6.677858  4.048155
146   1 0.0000  63.826093  9.924772 10.271874
147   1 0.0000  75.688265 13.171686 16.495594
148   1 0.0000  87.550437 16.418600 22.719314
149   1 0.0000  99.412609 19.665513 28.943033
150   1 0.0000 111.274781 22.912427 35.166753
151   1 0.0000  63.826093 13.697625  4.048155
152   1 0.0000  75.688265 16.944539 10.271874
153   1 0.0000  87.550437 20.191453 16.495594
154   1 0.0000  99.412609 23.438367 22.719314
155   1 0.0000 111.274782 26.685281 28.943033
156   1 0.0000 123.136954 29.932195 35.166753
157   1 0.0000  75.688266 20.717393  4.048155
158   1 0.0000  87.550438 23.964307 10.271874
159   1 0.0000  99.412610 27.211221 16.495594
160   1 0.0000 111.274782 30.458135 22.719314
161   1 0.0000 123.136954 33.705049 28.943033
162   1 0.0000 134.999126 36.951963 35.166753
163   1 0.0000  87.550438 27.737161  4.048155
164   1 0.0000  99.412610 30.984075 10.271874
165   1 0.0000 111.274782 34.230988 16.495594
166   1 0.0000 123.136955 37.477902 22.719314
167   1 0.0000 134.999127 40.724816 28.943033
168   1 0.0000 146.861299 43.971730 35.166753
169   1 0.0000  65.747544  6.677858  4.048155
170   1 0.0000  77.609716  9.924772 10.271874
171   1 0.0000  89.471888 13.171686 16.495594
172   1 0.0000 101.334060 16.418600 22.719314
173   1 0.0000 113.196232 19.665513 28.943033
174   1 0.0000 125.058405 22.912427 35.166753
175   1 0.0000  77.609716 13.697625  4.048155
176   1 0.0000  89.471889 16.944539 10.271874
177   1 0.0000 101.334061 20.191453 16.495594
178   1 0.0000 113.196233 23.438367 22.719314
179   1 0.0000 125.058405 26.685281 28.943033
180   1 0.0000 136.920577 29.932195 35.166753
181   1 0.0000  89.471889 20.717393  4.048155
182   1 0.0000 101.334061 23.964307 10.271874
183   1 0.0000 113.196233 27.211221 16.495594
184   1 0.0000 125.058405 30.458135 22.719314
185   1 0.0000 136.920578 33.705049 28.943033
186   1 0.0000 148.782750 36.951963 35.166753
187   1 0.0000 101.334062 27.737161  4.048155
188   1 0.0000 113.196234 30.984075 10.271874
189   1 0.0000 125.058406 34.230988 16.495594
190   1 0.0000 136.920578 37.477902 22.719314
191   1 0.0000 148.782750 40.724816 28.943033
192   1 0.0000 160.644922 43.971730 35.166753
193   1 0.0000   5.642689  1.544517  0.936295
194   1 0.0000  17.504861  4.791431  7.160014
195   1 0.0000  29.367034  8.038345 13.383734
196   1 0.0000  41.229206 11.285259 19.607454
197   1 0.0000  53.091378 14.532173 25.831173
198   1 0.0000  64.953550 17.779087 32.054893
199   1 0.0000  17.504862  8.564285  0.936295
200   1 0.0000  29.367034 11.811199  7.160014
201   1 0.0000  41.229206 15.058112 13.383734
202   1 0.0000  53.091378 18.305026 19.607454
203   1 0.0000  64.953550 21.551940 25.831173
204   1 0.0000  76.815723 24.798854 32.054893
205   1 0.0000  29.367035 15.584052  0.936295
206   1 0.0000  41.229207 18.830966  7.160014
207   1 0.0000  53.091379 22.077880 13.383734
208   1 0.0000  64.953551 25.324794 19.607454
209   1 0.0000  76.815723 28.571708 25.831173
210   1 0.0000  88.677895 31.818622 32.054893
211   1 0.0000  41.229207 22.603820  0.936295
212   1 0.0000  53.091379 25.850734  7.160014
213   1 0.0000  64.953551 29.097648 13.383734
214   1 0.0000  76.815724 32.344562 19.607454
215   1 0.0000  88.677896 35.591476 25.831173
216   1 0.0000 100.540068 38.838389 32.054893
217   1 0.0000  19.426313  1.544517  0.936295
218   1 0.0000  31.288485  4.791431  7.160014
219   1 0.0000  43.150657  8.038345 13.383734
220   1 0.0000  55.012829 11.285259 19.607454
221   1 0.0000  66.875001 14.532173 25.831173
222   1 0.0000  78.737173 17.779087 32.054893
223   1 0.0000  31.288485  8.564285  0.936295
224   1 0.0000  43.150658 11.811199  7.160014
225   1 0.0000  55.012830 15.058112 13.383734
226   1 0.0000  66.875002 18.305026 19.607454
227   1 0.0000  78.737174 21.551940 25.831173
228   1 0.0000  90.599346 24.798854 32.054893
229   1 0.0000  43.150658 15.584052  0.936295
230   1 0.0000  55.012830 18.830966  7.160014
231   1 0.0000  66.875002 22.077880 13.383734
232   1 0.0000  78.737174 25.324794 19.607454
233   1 0.0000  90.599347 28.571708 25.831173
234   1 0.0000 102.461519 31.818622 32.054893
235   1 0.0000  55.012831 22.603820  0.936295
236   1 0.0000  66.875003 25.850734  7.160014
237   1 0.0000  78.737175 29.097648 13.383734
238   1 0.0000  90.599347 32.344562 19.607454
239   1 0.0000 102.461519 35.591476 25.831173
240   1 0.0000 114.323691 38.838389 32.054893
241   1 0.0000  33.209936  1.544517  0.936295
242   1 0.0000  45.072108  4.791431  7.160014
243   1 0.0000  56.934281  8.038345 13.383734
244   1 0.0000  68.796453 11.285259 19.607454
245   1 0.0000  80.658625 14.532173 25.831173
246   1 0.0000  92.520797 17.779087 32.054893
247   1 0.0000  45.072109  8.564285  0.936295
248   1 0.0000  56.934281 11.811199  7.160014
249   1 0.0000  68.796453 15.058112 13.383734
250   1 0.0000  80.658625 18.305026 19.607454
251   1 0.0000  92.520797 21.551940 25.831173
252   1 0.0000 104.382970 24.798854 32.054893
253   1 0.0000  56.934281 15.584052  0.936295
254   1 0.0000  68.796454 18.830966  7.160014
255   1 0.0000  80.658626 22.077880 13.383734
256   1 0.0000  92.520798 25.324794 19.607454
257   1 0.0000 104.382970 28.571708 25.831173
258   1 0.0000 116.245142 31.818622 32.054893
259   1 0.0000  68.796454 22.603820  0.936295
260   1 0.0000  80.658626 25.850734  7.160014
261   1 0.0000  92.520798 29.097648 13.383734
262   1 0.0000 104.382970 32.344562 19.607454
263   1 0.0000 116.245143 35.591476 25.831173
264   1 0.0000 128.107315 38.838389 32.054893
265   1 0.0000  46.993560  1.544517  0.936295
266   1 0.0000  58.855732  4.791431  7.160014
267   1 0.0000  70.717904  8.038345 13.383734
268   1 0.0000  82.580076 11.285259 19.607454
269   1 0.0000  94.442248 14.532173 25.831173
270   1 0.0000 106.304420 17.779087 32.054893
271   1 0.0000  58.855732  8.564285  0.936295
272   1 0.0000  70.717904 11.811199  7.160014
273   1 0.0000  82.580077 15.058112 13.383734
274   1 0.0000  94.442249 18.305026 19.607454
275   1 0.0000 106.304421 21.551940 25.831173
276   1 0.0000 118.166593 24.798854 32.054893
277   1 0.0000  70.717905 15.584052  0.936295
278   1 0.0000  82.580077 18.830966  7.160014
279   1 0.0000  94.442249 22.077880 13.383734
280   1 0.0000 106.304421 25.324794 19.607454
281   1 0.0000 118.166593 28.571708 25.831173
282   1 0.0000 130.028766 31.818622 32.054893
283   1 0.0000  82.580078 22.603820  0.936295
284   1 0.0000  94.442250 25.850734  7.160014
285   1 0.0000 106.304422 29.097648 13.383734
286   1 0.0000 118.166594 32.344562 19.607454
287   1 0.0000 130.028766 35.591476 25.831173
288   1 0.0000 141.890938 38.838389 32.054893
289   1 0.0000  13.111295  3.588824  2.175565
290   1 0.0000  24.973467  6.835738  8.399285
291   1 0.0000  36.835639 10.082652 14.623004
292   1 0.0000  48.697811 13.329566 20.846724
293   1 0.0000  60.559983 16.576479 27.070444
294   1 0.0000  72.422155 19.823393 33.294163
295   1 0.0000  24.973467 10.608591  2.175565
296   1 0.0000  36.835639 13.855505  8.399285
297   1 0.0000  48.697812 17.102419 14.623004
298   1 0.0000  60.559984 20.349333 20.846724
299   1 0.0000  72.422156 23.596247 27.070444
300   1 0.0000  84.284328 26.843161 33.294163
301   1 0.0000  36.835640 17.628359  2.175565
302   1 0.0000  48.697812 20.875273  8.399285
303   1 0.0000  60.559984 24.122187 14.623004
304   1 0.0000  72.422156 27.369101 20.846724
305   1 0.0000  84.284328 30.616015 27.070444
306   1 0.0000  96.146501 33.862929 33.294163
307   1 0.0000  48.697812 24.648127  2.175565
308   1 0.0000  60.559985 27.895041  8.399285
309   1 0.0000  72.422157 31.141954 14.623004
310   1 0.0000  84.284329 34.388868 20.846724
311   1 0.0000  96.146501 37.635782 27.070444
312   1 0.0000 108.008673 40.882696 33.294163
313   1 0.0000  26.894918  3.588824  2.175565
314   1 0.0000  38.757090  6.835738  8.399285
315   1 0.0000  50.619262 10.082652 14.623004
316   1 0.0000  62.481435 13.329566 20.846724
317   1 0.0000  74.343607 16.576479 27.070444
318   1 0.0000  86.205779 19.823393 33.294163
319   1 0.0000  38.757091 10.608591  2.175565
320   1 0.0000  50.619263 13.855505  8.399285
321   1 0.0000  62.481435 17.102419 14.623004
322   1 0.0000  74.343607 20.349333 20.846724
323   1 0.0000  86.205779 23.596247 27.070444
324   1 0.0000  98.067951 26.843161 33.294163
325   1 0.0000  50.619263 17.628359  2.175565
326   1 0.0000  62.481436 20.875273  8.399285
327   1 0.0000  74.343608 24.122187 14.623004
328   1 0.0000  86.205780 27.369101 20.846724
329   1 0.0000  98.067952 30.616015 27.070444
330   1 0.0000 109.930124 33.862929 33.294163
331   1 0.0000  62.481436 24.648127  2.175565
332   1 0.0000  74.343608 27.895041  8.399285
333   1 0.0000  86.205780 31.141954 14.623004
334   1 0.0000  98.067952 34.388868 20.846724
335   1 0.0000 109.930124 37.635782 27.070444
336   1 0.0000 121.792297 40.882696 33.294163
337   1 0.0000  40.678542  3.588824  2.175565
338   1 0.0000  52.540714  6.835738  8.399285
339   1 0.0000  64.402886 10.082652 14.623004
340   1 0.0000  76.265058 13.329566 20.846724
341   1 0.0000  88.127230 16.576479 27.070444
342   1 0.0000  99.989402 19.823393 33.294163
343   1 0.0000  52.540714 10.608591  2.175565
344   1 0.0000  64.402886 13.855505  8.399285
345   1 0.0000  76.265059 17.102419 14.623004
346   1 0.0000  88.127231 20.349333 20.846724
347   1 0.0000  99.989403 23.596247 27.070444
348   1 0.0000 111.851575 26.843161 33.294163
349   1 0.0000  64.402887 17.628359  2.175565
350   1 0.0000  76.265059 20.875273  8.399285
351   1 0.0000  88.127231 24.122187 14.623004
352   1 0.0000  99.989403 27.369101 20.846724
353   1 0.0000 111.851575 30.616015 27.070444
354   1 0.0000 123.713748 33.862929 33.294163
355   1 0.0000  76.265059 24.648127  2.175565
356   1 0.0000  88.127232 27.895041  8.399285
357   1 0.0000  99.989404 31.141954 14.623004
358   1 0.0000 111.851576 34.388868 20.846724
359   1 0.0000 123.713748 37.635782 27.070444
360   1 0.0000 135.575920 40.882696 33.294163
361   1 0.0000  54.462165  3.588824  2.175565
362   1 0.0000  66.324337  6.835738  8.399285
363   1 0.0000  78.186509 10.082652 14.623004
364   1 0.0000  90.048682 13.329566 20.846724
365   1 0.0000 101.910854 16.576479 27.070444
366   1 0.0000 113.773026 19.823393 33.294163
367   1 0.0000  66.324338 10.608591  2.175565
368   1 0.0000  78.186510 13.855505  8.399285
369   1 0.0000  90.048682 17.102419 14.623004
370   1 0.0000 101.910854 20.349333 20.846724
371   1 0.0000 113.773026 23.596247 27.070444
372   1 0.0000 125.635198 26.843161 33.294163
373   1 0.0000  78.186510 17.628359  2.175565
374   1 0.0000  90.048682 20.875273  8.399285
375   1 0.0000 101.910855 24.122187 14.623004
376   1 0.0000 113.773027 27.369101 20.846724
377   1 0.0000 125.635199 30.616015 27.070444
378   1 0.0000 137.497371 33.862929 33.294163
379   1 0.0000  90.048683 24.648127  2.175565
380   1 0.0000 101.910855 27.895041  8.399285
381   1 0.0000 113.773027 31.141954 14.623004
382   1 0.0000 125.635199 34.388868 20.846724
383   1 0.0000 137.497371 37.635782 27.070444
384   1 0.0000 149.359544 40.882696 33.294163
385   1 0.0000  28.130976  7.700011  4.667790
386   1 0.0000  39.993148 10.946925 10.891509
387   1 0.0000  51.855320 14.193839 17.115229
388   1 0.0000  63.717493 17.440753 23.338949
389   1 0.0000  75.579665 20.687667 29.562668
390   1 0.0000  87.441837 23.934581 35.786388
391   1 0.0000  39.993149 14.719779  4.667790
392   1 0.0000  51.855321 17.966693 10.891509
393   1 0.0000  63.717493 21.213607 17.115229
394   1 0.0000  75.579665 24.460521 23.338949
395   1 0.0000  87.441837 27.707434 29.562668
396   1 0.0000  99.304009 30.954348 35.786388
397   1 0.0000  51.855321 21.739546  4.667790
398   1 0.0000  63.717493 24.986460 10.891509
399   1 0.0000  75.579666 28.233374 17.115229
400   1 0.0000  87.441838 31.480288 23.338949
401   1 0.0000  99.304010 34.727202 29.562668
402   1 0.0000 111.166182 37.974116 35.786388
403   1 0.0000  63.717494 28.759314  4.667790
404   1 0.0000  75.579666 32.006228 10.891509
405   1 0.0000  87.441838 35.253142 17.115229
406   1 0.0000  99.304010 38.500056 23.338949
407   1 0.0000 111.166182 41.746970 29.562668
408   1 0.0000 123.028355 44.993884 35.786388
409   1 0.0000  41.914600  7.700011  4.667790
410   1 0.0000  53.776772 10.946925 10.891509
411   1 0.0000  65.638944 14.193839 17.115229
412   1 0.0000  77.501116 17.440753 23.338949
413   1 0.0000  89.363288 20.687667 29.562668
414   1 0.0000 101.225460 23.934581 35.786388
415   1 0.0000  53.776772 14.719779  4.667790
416   1 0.0000  65.638944 17.966693 10.891509
417   1 0.0000  77.501116 21.213607 17.115229
418   1 0.0000  89.363289 24.460521 23.338949
419   1 0.0000 101.225461 27.707434 29.562668
420   1 0.0000 113.087633 30.954348 35.786388
421   1 0.0000  65.638945 21.739546  4.667790
422   1 0.0000  77.501117 24.986460 10.891509
423   1 0.0000  89.363289 28.233374 17.115229
424   1 0.0000 101.225461 31.480288 23.338949
425   1 0.0000 113.087633 34.727202 29.562668
426   1 0.0000 124.949805 37.974116 35.786388
427   1 0.0000  77.501117 28.759314  4.667790
428   1 0.0000  89.363289 32.006228 10.891509
429   1 0.0000 101.225462 35.253142 17.115229
430   1 0.0000 113.087634 38.500056 23.338949
431   1 0.0000 124.949806 41.746970 29.562668
432   1 0.0000 136.811978 44.993884 35.786388
433   1 0.0000  55.698223  7.700011  4.667790
434   1 0.0000  67.560395 10.946925 10.891509
435   1 0.0000  79.422567 14.193839 17.115229
436   1 0.0000  91.284739 17.440753 23.338949
437   1 0.0000 103.146912 20.687667 29.562668
438   1 0.0000 115.009084 23.934581 35.786388
439   1 0.0000  67.560396 14.719779  4.667790
440   1 0.0000  79.422568 17.966693 10.891509
441   1 0.0000  91.284740 21.213607 17.115229
442   1 0.0000 103.146912 24.460521 23.338949
443   1 0.0000 115.009084 27.707434 29.562668
444   1 0.0000 126.871256 30.954348 35.786388
445   1 0.0000  79.422568 21.739546  4.667790
446   1 0.0000  91.284740 24.986460 10.891509
447   1 0.0000 103.146913 28.233374 17.115229
448   1 0.0000 115.009085 31.480288 23.338949
449   1 0.0000 126.871257 34.727202 29.562668
450   1 0.0000 138.733429 37.974116 35.786388
451   1 0.0000  91.284741 28.759314  4.667790
452   1 0.0000 103.146913 32.006228 10.891509
453   1 0.0000 115.009085 35.253142 17.115229
454   1 0.0000 126.871257 38.500056 23.338949
455   1 0.0000 138.733429 41.746970 29.562668
456   1 0.0000 150.595601 44.993884 35.786388
457   1 0.0000  69.481847  7.700011  4.667790
458   1 0.0000  81.344019 10.946925 10.891509
459   1 0.0000  93.206191 14.193839 17.115229
460   1 0.0000 105.068363 17.440753 23.338949
461   1 0.0000 116.930535 20.687667 29.562668
462   1 0.0000 128.792707 23.934581 35.786388
463   1 0.0000  81.344019 14.719779  4.667790
464   1 0.0000  93.206191 17.966693 10.891509
465   1 0.0000 105.068363 21.213607 17.115229
466   1 0.0000 116.930536 24.460521 23.338949
467   1 0.0000 128.792708 27.707434 29.562668
468   1 0.0000 140.654880 30.954348 35.786388
469   1 0.0000  93.206192 21.739546  4.667790
470   1 0.0000 105.068364 24.986460 10.891509
471   1 0.0000 116.930536 28.233374 17.115229
472   1 0.0000 128.792708 31.480288 23.338949
473   1 0.0000 140.654880 34.727202 29.562668
474   1 0.0000 152.517052 37.974116 35.786388
475   1 0.0000 105.068364 28.759314  4.667790
476   1 0.0000 116.930536 32.006228 10.891509
477   1 0.0000 128.792709 35.253142 17.115229
478   1 0.0000 140.654881 38.500056 23.338949
479   1 0.0000 152.517053 41.746970 29.562668
480   1 0.0000 164.379225 44.993884 35.786388
481   1 0.0000   9.376992  2.566670  1.555930
482   1 0.0000  21.239164  5.813584  7.779650
483   1 0.0000  33.101336  9.060498 14.003369
484   1 0.0000  44.963508 12.307412 20.227089
485   1 0.0000  56.825681 15.554326 26.450808
486   1 0.0000  68.687853 18.801240 32.674528
487   1 0.0000  21.239165  9.586438  1.555930
488   1 0.0000  33.101337 12.833352  7.779650
489   1 0.0000  44.963509 16.080266 14.003369
490   1 0.0000  56.825681 19.327180 20.227089
491   1 0.0000  68.687853 22.574094 26.450808
492   1 0.0000  80.550025 25.821008 32.674528
493   1 0.0000  33.101337 16.606206  1.555930
494   1 0.0000  44.963509 19.853120  7.779650
495   1 0.0000  56.825681 23.100033 14.003369
496   1 0.0000  68.687854 26.346947 20.227089
497   1 0.0000  80.550026 29.593861 26.450808
498   1 0.0000  92.412198 32.840775 32.674528
499   1 0.0000  44.963510 23.625973  1.555930
500   1 0.0000  56.825682 26.872887  7.779650
501   1 0.0000  68.687854 30.119801 14.003369
502   1 0.0000  80.550026 33.366715 20.227089
503   1 0.0000  92.412198 36.613629 26.450808
504   1 0.0000 104.274370 39.860543 32.674528
505   1 0.0000  23.160616  2.566670  1.555930
506   1 0.0000  35.022788  5.813584  7.779650
507   1 0.0000  46.884960  9.060498 14.003369
508   1 0.0000  58.747132 12.307412 20.227089
509   1 0.0000  70.609304 15.554326 26.450808
510   1 0.0000  82.471476 18.801240 32.674528
511   1 0.0000  35.022788  9.586438  1.555930
512   1 0.0000  46.884960 12.833352  7.779650
513   1 0.0000  58.747132 16.080266 14.003369
514   1 0.0000  70.609305 19.327180 20.227089
515   1 0.0000  82.471477 22.574094 26.450808
516   1 0.0000  94.333649 25.821008 32.674528
517   1 0.0000  46.884961 16.606206  1.555930
518   1 0.0000  58.747133 19.853120  7.779650
519   1 0.0000  70.609305 23.100033 14.003369
520   1 0.0000  82.471477 26.346947 20.227089
521   1 0.0000  94.333649 29.593861 26.450808
522   1 0.0000 106.195821 32.840775 32.674528
523   1 0.0000  58.747133 23.625973  1.555930
524   1 0.0000  70.609305 26.872887  7.779650
525   1 0.0000  82.471478 30.119801 14.003369
526   1 0.0000  94.333650 33.366715 20.227089
527   1 0.0000 106.195822 36.613629 26.450808
528   1 0.0000 118.057994 39.860543 32.674528
529   1 0.0000  36.944239  2.566670  1.555930
530   1 0.0000  48.806411  5.813584  7.779650
531   1 0.0000  60.668583  9.060498 14.003369
532   1 0.0000  72.530755 12.307412 20.227089
533   1 0.0000  84.392928 15.554326 26.450808
534   1 0.0000  96.255100 18.801240 32.674528
535   1 0.0000  48.806412  9.586438  1.555930
536   1 0.0000  60.668584 12.833352  7.779650
537   1 0.0000  72.530756 16.080266 14.003369
538   1 0.0000  84.392928 19.327180 20.227089
539   1 0.0000  96.255100 22.574094 26.450808
540   1 0.0000 108.117272 25.821008 32.674528
541   1 0.0000  60.668584 16.606206  1.555930
542   1 0.0000  72.530756 19.853120  7.779650
543   1 0.0000  84.392928 23.100033 14.003369
544   1 0.0000  96.255101 26.346947 20.227089
545   1 0.0000 108.117273 29.593861 26.450808
546   1 0.0000 119.979445 32.840775 32.674528
547   1 0.0000  72.530757 23.625973  1.555930
548   1 0.0000  84.392929 26.872887  7.779650
549   1 0.0000  96.255101 30.119801 14.003369
550   1 0.0000 108.117273 33.366715 20.227089
551   1 0.0000 119.979445 36.613629 26.450808
552   1 0.0000 131.841617 39.860543 32.674528
553   1 0.0000  50.727862  2.566670  1.555930
554   1 0.0000  62.590035  5.813584  7.779650
555   1 0.0000  74.452207  9.060498 14.003369
556   1 0.0000  86.314379 12.307412 20.227089
557   1 0.0000  98.176551 15.554326 26.450808
558   1 0.0000 110.038723 18.801240 32.674528
559   1 0.0000  62.590035  9.586438  1.555930
560   1 0.0000  74.452207 12.833352  7.779650
561   1 0.0000  86.314379 16.080266 14.003369
562   1 0.0000  98.176551 19.327180 20.227089
563   1 0.0000 110.038724 22.574094 26.450808
564   1 0.0000 121.900896 25.821008 32.674528
565   1 0.0000  74.452208 16.606206  1.555930
566   1 0.0000  86.314380 19.853120  7.779650
567   1 0.0000  98.176552 23.100033 14.003369
568   1 0.0000 110.038724 26.346947 20.227089
569   1 0.0000 121.900896 29.593861 26.450808
570   1 0.0000 133.763068 32.840775 32.674528
571   1 0.0000  86.314380 23.625973  1.555930
572   1 0.0000  98.176552 26.872887  7.779650
573   1 0.0000 110.038724 30.119801 14.003369
574   1 0.0000 121.900897 33.366715 20.227089
575   1 0.0000 133.763069 36.613629 26.450808
576   1 0.0000 145.625241 39.860543 32.674528
577   2 0.0000  20.590822  4.711879  2.248185
578   2 0.0000  32.452994  7.958792  8.471905
579   2 0.0000  44.315167 11.205706 14.695625
580   2 0.0000  56.177339 14.452620 20.919344
581   2 0.0000  68.039511 17.699534 27.143064
582   2 0.0000  79.901683 20.946448 33.366783
583   2 0.0000  32.452995 11.731646  2.248185
584   2 0.0000  44.315167 14.978560  8.471905
585   2 0.0000  56.177339 18.225474 14.695625
586   2 0.0000  68.039511 21.472388 20.919344
587   2 0.0000  79.901683 24.719302 27.143064
588   2 0.0000  91.763856 27.966216 33.366783
589   2 0.0000  44.315167 18.751414  2.248185
590   2 0.0000  56.177340 21.998328  8.471905
591   2 0.0000  68.039512 25.245242 14.695625
592   2 0.0000  79.901684 28.492156 20.919344
593   2 0.0000  91.763856 31.739069 27.143064
594   2 0.0000 103.626028 34.985983 33.366783
595   2 0.0000  56.177340 25.771181  2.248185
596   2 0.0000  68.039512 29.018095  8.471905
597   2 0.0000  79.901684 32.265009 14.695625
598   2 0.0000  91.763856 35.511923 20.919344
599   2 0.0000 103.626029 38.758837 27.143064
600   2 0.0000 115.488201 42.005751 33.366783
601   2 0.0000  34.374446  4.711879  2.248185
602   2 0.0000  46.236618  7.958792  8.471905
603   2 0.0000  58.098790 11.205706 14.695625
604   2 0.0000  69.960962 14.452620 20.919344
605   2 0.0000  81.823134 17.699534 27.143064
606   2 0.0000  93.685306 20.946448 33.366783
607   2 0.0000  46.236618 11.731646  2.248185
608   2 0.0000  58.098791 14.978560  8.471905
609   2 0.0000  69.960963 18.225474 14.695625
610   2 0.0000  81.823135 21.472388 20.919344
611   2 0.0000  93.685307 24.719302 27.143064
612   2 0.0000 105.547479 27.966216 33.366783
613   2 0.0000  58.098791 18.751414  2.248185
614   2 0.0000  69.960963 21.998328  8.471905
615   2 0.0000  81.823135 25.245242 14.695625
616   2 0.0000  93.685307 28.492156 20.919344
617   2 0.0000 105.547479 31.739069 27.143064
618   2 0.0000 117.409652 34.985983 33.366783
619   2 0.0000  69.960964 25.771181  2.248185
620   2 0.0000  81.823136 29.018095  8.471905
621   2 0.0000  93.685308 32.265009 14.695625
622   2 0.0000 105.547480 35.511923 20.919344
623   2 0.0000 117.409652 38.758837 27.143064
624   2 0.0000 129.271824 42.005751 33.366783
625   2 0.0000  48.158069  4.711879  2.248185
626   2 0.0000  60.020241  7.958792  8.471905
627   2 0.0000  71.882414 11.205706 14.695625
628   2 0.0000  83.744586 14.452620 20.919344
629   2 0.0000  95.606758 17.699534 27.143064
630   2 0.0000 107.468930 20.946448 33.366783
631   2 0.0000  60.020242 11.731646  2.248185
632   2 0.0000  71.882414 14.978560  8.471905
633   2 0.0000  83.744586 18.225474 14.695625
634   2 0.0000  95.606758 21.472388 20.919344
635   2 0.0000 107.468930 24.719302 27.143064
636   2 0.0000 119.331103 27.966216 33.366783
637   2 0.0000  71.882414 18.751414  2.248185
638   2 0.0000  83.744587 21.998328  8.471905
639   2 0.0000  95.606759 25.245242 14.695625
640   2 0.0000 107.468931 28.492156 20.919344
641   2 0.0000 119.331103 31.739069 27.143064
642   2 0.0000 131.193275 34.985983 33.366783
643   2 0.0000  83.744587 25.771181  2.248185
644   2 0.0000  95.606759 29.018095  8.471905
645   2 0.0000 107.468931 32.265009 14.695625
646   2 0.0000 119.331103 35.511923 20.919344