Generated by pymatgen.io.lammps.data.LammpsData

672  atoms

  3  atom types

0.000000 27.567247  xlo xhi
0.000000 14.039535  ylo yhi
0.000000 24.894879  zlo zhi
23.724345 47.448689 12.987656  xy xz yz

Masses

1  137.3270
2   10.8110
3   15.9994

Atoms

1    1 0.0000 31.865279  8.722165  5.287425
2    1 0.0000 43.727451 11.969078 11.511144
3    1 0.0000 55.589623 15.215992 17.734864
4    1 0.0000 67.451795 18.462906 23.958584
5    1 0.0000 43.727451 15.741932  5.287425
6    1 0.0000 55.589624 18.988846 11.511144
7    1 0.0000 67.451796 22.235760 17.734864
8    1 0.0000 79.313968 25.482674 23.958584
9    1 0.0000 45.648902  8.722165  5.287425
10   1 0.0000 57.511074 11.969078 11.511144
11   1 0.0000 69.373247 15.215992 17.734864
12   1 0.0000 81.235419 18.462906 23.958584
13   1 0.0000 57.511075 15.741932  5.287425
14   1 0.0000 69.373247 18.988846 11.511144
15   1 0.0000 81.235419 22.235760 17.734864
16   1 0.0000 93.097591 25.482674 23.958584
17   1 0.0000 24.396673  6.677858  4.048155
18   1 0.0000 36.258846  9.924772 10.271874
19   1 0.0000 48.121018 13.171686 16.495594
20   1 0.0000 59.983190 16.418600 22.719314
21   1 0.0000 36.258846 13.697625  4.048155
22   1 0.0000 48.121018 16.944539 10.271874
23   1 0.0000 59.983190 20.191453 16.495594
24   1 0.0000 71.845362 23.438367 22.719314
25   1 0.0000 38.180297  6.677858  4.048155
26   1 0.0000 50.042469  9.924772 10.271874
27   1 0.0000 61.904641 13.171686 16.495594
28   1 0.0000 73.766813 16.418600 22.719314
29   1 0.0000 50.042470 13.697625  4.048155
30   1 0.0000 61.904642 16.944539 10.271874
31   1 0.0000 73.766814 20.191453 16.495594
32   1 0.0000 85.628986 23.438367 22.719314
33   1 0.0000  5.642689  1.544517  0.936295
34   1 0.0000 17.504861  4.791431  7.160014
35   1 0.0000 29.367034  8.038345 13.383734
36   1 0.0000 41.229206 11.285259 19.607454
37   1 0.0000 17.504862  8.564285  0.936295
38   1 0.0000 29.367034 11.811199  7.160014
39   1 0.0000 41.229206 15.058112 13.383734
40   1 0.0000 53.091378 18.305026 19.607454
41   1 0.0000 19.426313  1.544517  0.936295
42   1 0.0000 31.288485  4.791431  7.160014
43   1 0.0000 43.150657  8.038345 13.383734
44   1 0.0000 55.012829 11.285259 19.607454
45   1 0.0000 31.288485  8.564285  0.936295
46   1 0.0000 43.150658 11.811199  7.160014
47   1 0.0000 55.012830 15.058112 13.383734
48   1 0.0000 66.875002 18.305026 19.607454
49   1 0.0000 13.111295  3.588824  2.175565
50   1 0.0000 24.973467  6.835738  8.399285
51   1 0.0000 36.835639 10.082652 14.623004
52   1 0.0000 48.697811 13.329566 20.846724
53   1 0.0000 24.973467 10.608591  2.175565
54   1 0.0000 36.835639 13.855505  8.399285
55   1 0.0000 48.697812 17.102419 14.623004
56   1 0.0000 60.559984 20.349333 20.846724
57   1 0.0000 26.894918  3.588824  2.175565
58   1 0.0000 38.757090  6.835738  8.399285
59   1 0.0000 50.619262 10.082652 14.623004
60   1 0.0000 62.481435 13.329566 20.846724
61   1 0.0000 38.757091 10.608591  2.175565
62   1 0.0000 50.619263 13.855505  8.399285
63   1 0.0000 62.481435 17.102419 14.623004
64   1 0.0000 74.343607 20.349333 20.846724
65   1 0.0000 28.130976  7.700011  4.667790
66   1 0.0000 39.993148 10.946925 10.891509
67   1 0.0000 51.855320 14.193839 17.115229
68   1 0.0000 63.717493 17.440753 23.338949
69   1 0.0000 39.993149 14.719779  4.667790
70   1 0.0000 51.855321 17.966693 10.891509
71   1 0.0000 63.717493 21.213607 17.115229
72   1 0.0000 75.579665 24.460521 23.338949
73   1 0.0000 41.914600  7.700011  4.667790
74   1 0.0000 53.776772 10.946925 10.891509
75   1 0.0000 65.638944 14.193839 17.115229
76   1 0.0000 77.501116 17.440753 23.338949
77   1 0.0000 53.776772 14.719779  4.667790
78   1 0.0000 65.638944 17.966693 10.891509
79   1 0.0000 77.501116 21.213607 17.115229
80   1 0.0000 89.363289 24.460521 23.338949
81   1 0.0000  9.376992  2.566670  1.555930
82   1 0.0000 21.239164  5.813584  7.779650
83   1 0.0000 33.101336  9.060498 14.003369
84   1 0.0000 44.963508 12.307412 20.227089
85   1 0.0000 21.239165  9.586438  1.555930
86   1 0.0000 33.101337 12.833352  7.779650
87   1 0.0000 44.963509 16.080266 14.003369
88   1 0.0000 56.825681 19.327180 20.227089
89   1 0.0000 23.160616  2.566670  1.555930
90   1 0.0000 35.022788  5.813584  7.779650
91   1 0.0000 46.884960  9.060498 14.003369
92   1 0.0000 58.747132 12.307412 20.227089
93   1 0.0000 35.022788  9.586438  1.555930
94   1 0.0000 46.884960 12.833352  7.779650
95   1 0.0000 58.747132 16.080266 14.003369
96   1 0.0000 70.609305 19.327180 20.227089
97   2 0.0000 20.590822  4.711879  2.248185
98   2 0.0000 32.452994  7.958792  8.471905
99   2 0.0000 44.315167 11.205706 14.695625
100  2 0.0000 56.177339 14.452620 20.919344
101  2 0.0000 32.452995 11.731646  2.248185
102  2 0.0000 44.315167 14.978560  8.471905
103  2 0.0000 56.177339 18.225474 14.695625
104  2 0.0000 68.039511 21.472388 20.919344
105  2 0.0000 34.374446  4.711879  2.248185
106  2 0.0000 46.236618  7.958792  8.471905
107  2 0.0000 58.098790 11.205706 14.695625
108  2 0.0000 69.960962 14.452620 20.919344
109  2 0.0000 46.236618 11.731646  2.248185
110  2 0.0000 58.098791 14.978560  8.471905
111  2 0.0000 69.960963 18.225474 14.695625
112  2 0.0000 81.823135 21.472388 20.919344
113  2 0.0000 20.120121  4.968066  4.662309
114  2 0.0000 31.982294  8.214980 10.886028
115  2 0.0000 43.844466 11.461894 17.109748
116  2 0.0000 55.706638 14.708808 23.333468
117  2 0.0000 31.982294 11.987834  4.662309
118  2 0.0000 43.844466 15.234748 10.886028
119  2 0.0000 55.706638 18.481662 17.109748
120  2 0.0000 67.568810 21.728576 23.333468
121  2 0.0000 33.903745  4.968066  4.662309
122  2 0.0000 45.765917  8.214980 10.886028
123  2 0.0000 57.628089 11.461894 17.109748
124  2 0.0000 69.490261 14.708808 23.333468
125  2 0.0000 45.765917 11.987834  4.662309
126  2 0.0000 57.628090 15.234748 10.886028
127  2 0.0000 69.490262 18.481662 17.109748
128  2 0.0000 81.352434 21.728576 23.333468
129  2 0.0000 19.845509  6.895568  3.137675
130  2 0.0000 31.707681 10.142482  9.361394
131  2 0.0000 43.569853 13.389396 15.585114
132  2 0.0000 55.432026 16.636310 21.808834
133  2 0.0000 31.707682 13.915336  3.137675
134  2 0.0000 43.569854 17.162250  9.361394
135  2 0.0000 55.432026 20.409164 15.585114
136  2 0.0000 67.294198 23.656077 21.808834
137  2 0.0000 33.629133  6.895568  3.137675
138  2 0.0000 45.491305 10.142482  9.361394
139  2 0.0000 57.353477 13.389396 15.585114
140  2 0.0000 69.215649 16.636310 21.808834
141  2 0.0000 45.491305 13.915336  3.137675
142  2 0.0000 57.353477 17.162250  9.361394
143  2 0.0000 69.215650 20.409164 15.585114
144  2 0.0000 81.077822 23.656077 21.808834
145  2 0.0000 24.279659  5.721587  0.863675
146  2 0.0000 36.141831  8.968501  7.087394
147  2 0.0000 48.004003 12.215415 13.311114
148  2 0.0000 59.866175 15.462329 19.534833
149  2 0.0000 36.141831 12.741354  0.863675
150  2 0.0000 48.004003 15.988268  7.087394
151  2 0.0000 59.866175 19.235182 13.311114
152  2 0.0000 71.728348 22.482096 19.534833
153  2 0.0000 38.063282  5.721587  0.863675
154  2 0.0000 49.925454  8.968501  7.087394
155  2 0.0000 61.787626 12.215415 13.311114
156  2 0.0000 73.649798 15.462329 19.534833
157  2 0.0000 49.925455 12.741354  0.863675
158  2 0.0000 61.787627 15.988268  7.087394
159  2 0.0000 73.649799 19.235182 13.311114
160  2 0.0000 85.511971 22.482096 19.534833
161  2 0.0000 23.808957  4.207590  6.197905
162  2 0.0000 35.671130  7.454504 12.421624
163  2 0.0000 47.533302 10.701417 18.645344
164  2 0.0000 59.395474 13.948331 24.869064
165  2 0.0000 35.671130 11.227357  6.197905
166  2 0.0000 47.533302 14.474271 12.421624
167  2 0.0000 59.395474 17.721185 18.645344
168  2 0.0000 71.257646 20.968099 24.869064
169  2 0.0000 37.592581  4.207590  6.197905
170  2 0.0000 49.454753  7.454504 12.421624
171  2 0.0000 61.316925 10.701417 18.645344
172  2 0.0000 73.179097 13.948331 24.869064
173  2 0.0000 49.454753 11.227357  6.197905
174  2 0.0000 61.316926 14.474271 12.421624
175  2 0.0000 73.179098 17.721185 18.645344
176  2 0.0000 85.041270 20.968099 24.869064
177  2 0.0000 22.632820  9.428696  4.673271
178  2 0.0000 34.494992 12.675610 10.896990
179  2 0.0000 46.357164 15.922524 17.120710
180  2 0.0000 58.219336 19.169438 23.344430
181  2 0.0000 34.494992 16.448464  4.673271
182  2 0.0000 46.357164 19.695377 10.896990
183  2 0.0000 58.219337 22.942291 17.120710
184  2 0.0000 70.081509 26.189205 23.344430
185  2 0.0000 36.416443  9.428696  4.673271
186  2 0.0000 48.278615 12.675610 10.896990
187  2 0.0000 60.140787 15.922524 17.120710
188  2 0.0000 72.002960 19.169438 23.344430
189  2 0.0000 48.278616 16.448464  4.673271
190  2 0.0000 60.140788 19.695377 10.896990
191  2 0.0000 72.002960 22.942291 17.120710
192  2 0.0000 83.865132 26.189205 23.344430
193  2 0.0000 16.917146  5.554803  3.975534
194  2 0.0000 28.779318  8.801717 10.199254
195  2 0.0000 40.641490 12.048631 16.422974
196  2 0.0000 52.503662 15.295545 22.646693
197  2 0.0000 28.779318 12.574571  3.975534
198  2 0.0000 40.641491 15.821485 10.199254
199  2 0.0000 52.503663 19.068398 16.422974
200  2 0.0000 64.365835 22.315312 22.646693
201  2 0.0000 30.700769  5.554803  3.975534
202  2 0.0000 42.562941  8.801717 10.199254
203  2 0.0000 54.425114 12.048631 16.422974
204  2 0.0000 66.287286 15.295545 22.646693
205  2 0.0000 42.562942 12.574571  3.975534
206  2 0.0000 54.425114 15.821485 10.199254
207  2 0.0000 66.287286 19.068398 16.422974
208  2 0.0000 78.149458 22.315312 22.646693
209  2 0.0000 17.387847  5.298615  1.561411
210  2 0.0000 29.250019  8.545529  7.785131
211  2 0.0000 41.112191 11.792443 14.008850
212  2 0.0000 52.974363 15.039357 20.232570
213  2 0.0000 29.250019 12.318383  1.561411
214  2 0.0000 41.112191 15.565297  7.785131
215  2 0.0000 52.974364 18.812211 14.008850
216  2 0.0000 64.836536 22.059124 20.232570
217  2 0.0000 31.171470  5.298615  1.561411
218  2 0.0000 43.033642  8.545529  7.785131
219  2 0.0000 54.895814 11.792443 14.008850
220  2 0.0000 66.757987 15.039357 20.232570
221  2 0.0000 43.033643 12.318383  1.561411
222  2 0.0000 54.895815 15.565297  7.785131
223  2 0.0000 66.757987 18.812211 14.008850
224  2 0.0000 78.620159 22.059124 20.232570
225  2 0.0000 17.662459  3.371113  3.086045
226  2 0.0000 29.524631  6.618027  9.309765
227  2 0.0000 41.386803  9.864941 15.533484
228  2 0.0000 53.248975 13.111855 21.757204
229  2 0.0000 29.524632 10.390881  3.086045
230  2 0.0000 41.386804 13.637795  9.309765
231  2 0.0000 53.248976 16.884709 15.533484
232  2 0.0000 65.111148 20.131623 21.757204
233  2 0.0000 31.446082  3.371113  3.086045
234  2 0.0000 43.308255  6.618027  9.309765
235  2 0.0000 55.170427  9.864941 15.533484
236  2 0.0000 67.032599 13.111855 21.757204
237  2 0.0000 43.308255 10.390881  3.086045
238  2 0.0000 55.170427 13.637795  9.309765
239  2 0.0000 67.032599 16.884709 15.533484
240  2 0.0000 78.894771 20.131623 21.757204
241  2 0.0000 13.228310  4.545095  5.360045
242  2 0.0000 25.090482  7.792009 11.583765
243  2 0.0000 36.952654 11.038923 17.807484
244  2 0.0000 48.814826 14.285836 24.031204
245  2 0.0000 25.090482 11.564862  5.360045
246  2 0.0000 36.952654 14.811776 11.583765
247  2 0.0000 48.814826 18.058690 17.807484
248  2 0.0000 60.676999 21.305604 24.031204
249  2 0.0000 27.011933  4.545095  5.360045
250  2 0.0000 38.874105  7.792009 11.583765
251  2 0.0000 50.736277 11.038923 17.807484
252  2 0.0000 62.598450 14.285836 24.031204
253  2 0.0000 38.874106 11.564862  5.360045
254  2 0.0000 50.736278 14.811776 11.583765
255  2 0.0000 62.598450 18.058690 17.807484
256  2 0.0000 74.460622 21.305604 24.031204
257  2 0.0000 13.699011  6.059092  0.025815
258  2 0.0000 25.561183  9.306006  6.249534
259  2 0.0000 37.423355 12.552920 12.473254
260  2 0.0000 49.285527 15.799834 18.696974
261  2 0.0000 25.561183 13.078860  0.025815
262  2 0.0000 37.423355 16.325773  6.249534
263  2 0.0000 49.285528 19.572687 12.473254
264  2 0.0000 61.147700 22.819601 18.696974
265  2 0.0000 27.482634  6.059092  0.025815
266  2 0.0000 39.344806  9.306006  6.249534
267  2 0.0000 51.206978 12.552920 12.473254
268  2 0.0000 63.069151 15.799834 18.696974
269  2 0.0000 39.344807 13.078860  0.025815
270  2 0.0000 51.206979 16.325773  6.249534
271  2 0.0000 63.069151 19.572687 12.473254
272  2 0.0000 74.931323 22.819601 18.696974
273  2 0.0000 14.875148  0.837986  1.550449
274  2 0.0000 26.737321  4.084900  7.774168
275  2 0.0000 38.599493  7.331813 13.997888
276  2 0.0000 50.461665 10.578727 20.221608
277  2 0.0000 26.737321  7.857753  1.550449
278  2 0.0000 38.599493 11.104667  7.774168
279  2 0.0000 50.461665 14.351581 13.997888
280  2 0.0000 62.323837 17.598495 20.221608
281  2 0.0000 28.658772  0.837986  1.550449
282  2 0.0000 40.520944  4.084900  7.774168
283  2 0.0000 52.383116  7.331813 13.997888
284  2 0.0000 64.245288 10.578727 20.221608
285  2 0.0000 40.520945  7.857753  1.550449
286  2 0.0000 52.383117 11.104667  7.774168
287  2 0.0000 64.245289 14.351581 13.997888
288  2 0.0000 76.107461 17.598495 20.221608
289  3 0.0000 20.286771  6.077028  2.085941
290  3 0.0000 32.148943  9.323942  8.309660
291  3 0.0000 44.011115 12.570856 14.533380
292  3 0.0000 55.873287 15.817770 20.757100
293  3 0.0000 32.148943 13.096796  2.085941
294  3 0.0000 44.011116 16.343709  8.309660
295  3 0.0000 55.873288 19.590623 14.533380
296  3 0.0000 67.735460 22.837537 20.757100
297  3 0.0000 34.070394  6.077028  2.085941
298  3 0.0000 45.932566  9.323942  8.309660
299  3 0.0000 57.794739 12.570856 14.533380
300  3 0.0000 69.656911 15.817770 20.757100
301  3 0.0000 45.932567 13.096796  2.085941
302  3 0.0000 57.794739 16.343709  8.309660
303  3 0.0000 69.656911 19.590623 14.533380
304  3 0.0000 81.519083 22.837537 20.757100
305  3 0.0000 20.553703  4.209185  3.558447
306  3 0.0000 32.415875  7.456099  9.782167
307  3 0.0000 44.278047 10.703013 16.005886
308  3 0.0000 56.140219 13.949927 22.229606
309  3 0.0000 32.415875 11.228953  3.558447
310  3 0.0000 44.278047 14.475867  9.782167
311  3 0.0000 56.140220 17.722781 16.005886
312  3 0.0000 68.002392 20.969695 22.229606
313  3 0.0000 34.337326  4.209185  3.558447
314  3 0.0000 46.199498  7.456099  9.782167
315  3 0.0000 58.061670 10.703013 16.005886
316  3 0.0000 69.923843 13.949927 22.229606
317  3 0.0000 46.199499 11.228953  3.558447
318  3 0.0000 58.061671 14.475867  9.782167
319  3 0.0000 69.923843 17.722781 16.005886
320  3 0.0000 81.786015 20.969695 22.229606
321  3 0.0000 19.832163  6.321102  4.423059
322  3 0.0000 31.694335  9.568016 10.646779
323  3 0.0000 43.556508 12.814929 16.870499
324  3 0.0000 55.418680 16.061843 23.094218
325  3 0.0000 31.694336 13.340869  4.423059
326  3 0.0000 43.556508 16.587783 10.646779
327  3 0.0000 55.418680 19.834697 16.870499
328  3 0.0000 67.280852 23.081611 23.094218
329  3 0.0000 33.615787  6.321102  4.423059
330  3 0.0000 45.477959  9.568016 10.646779
331  3 0.0000 57.340131 12.814929 16.870499
332  3 0.0000 69.202303 16.061843 23.094218
333  3 0.0000 45.477959 13.340869  4.423059
334  3 0.0000 57.340131 16.587783 10.646779
335  3 0.0000 69.202304 19.834697 16.870499
336  3 0.0000 81.064476 23.081611 23.094218
337  3 0.0000 23.846077  7.051281  1.025919
338  3 0.0000 35.708249 10.298195  7.249639
339  3 0.0000 47.570422 13.545109 13.473358
340  3 0.0000 59.432594 16.792023 19.697078
341  3 0.0000 35.708250 14.071049  1.025919
342  3 0.0000 47.570422 17.317963  7.249639
343  3 0.0000 59.432594 20.564877 13.473358
344  3 0.0000 71.294766 23.811791 19.697078
345  3 0.0000 37.629701  7.051281  1.025919
346  3 0.0000 49.491873 10.298195  7.249639
347  3 0.0000 61.354045 13.545109 13.473358
348  3 0.0000 73.216217 16.792023 19.697078
349  3 0.0000 49.491873 14.071049  1.025919
350  3 0.0000 61.354045 17.317963  7.249639
351  3 0.0000 73.216218 20.564877 13.473358
352  3 0.0000 85.078390 23.811791 19.697078
353  3 0.0000 24.113009  3.720001  4.912520
354  3 0.0000 35.975181  6.966915 11.136240
355  3 0.0000 47.837353 10.213829 17.359959
356  3 0.0000 59.699525 13.460743 23.583679
357  3 0.0000 35.975182 10.739769  4.912520
358  3 0.0000 47.837354 13.986683 11.136240
359  3 0.0000 59.699526 17.233597 17.359959
360  3 0.0000 71.561698 20.480511 23.583679
361  3 0.0000 37.896632  3.720001  4.912520
362  3 0.0000 49.758805  6.966915 11.136240
363  3 0.0000 61.620977 10.213829 17.359959
364  3 0.0000 73.483149 13.460743 23.583679
365  3 0.0000 49.758805 10.739769  4.912520
366  3 0.0000 61.620977 13.986683 11.136240
367  3 0.0000 73.483149 17.233597 17.359959
368  3 0.0000 85.345321 20.480511 23.583679
369  3 0.0000 22.646165  8.554788  5.777132
370  3 0.0000 34.508338 11.801702 12.000852
371  3 0.0000 46.370510 15.048616 18.224572
372  3 0.0000 58.232682 18.295530 24.448291
373  3 0.0000 34.508338 15.574556  5.777132
374  3 0.0000 46.370510 18.821469 12.000852
375  3 0.0000 58.232682 22.068383 18.224572
376  3 0.0000 70.094854 25.315297 24.448291
377  3 0.0000 36.429789  8.554788  5.777132
378  3 0.0000 48.291961 11.801702 12.000852
379  3 0.0000 60.154133 15.048616 18.224572
380  3 0.0000 72.016305 18.295530 24.448291
381  3 0.0000 48.291961 15.574556  5.777132
382  3 0.0000 60.154134 18.821469 12.000852
383  3 0.0000 72.016306 22.068383 18.224572
384  3 0.0000 83.878478 25.315297 24.448291
385  3 0.0000 17.221197  4.189654  4.137779
386  3 0.0000 29.083369  7.436568 10.361499
387  3 0.0000 40.945542 10.683481 16.585218
388  3 0.0000 52.807714 13.930395 22.808938
389  3 0.0000 29.083370 11.209421  4.137779
390  3 0.0000 40.945542 14.456335 10.361499
391  3 0.0000 52.807714 17.703249 16.585218
392  3 0.0000 64.669886 20.950163 22.808938
393  3 0.0000 31.004821  4.189654  4.137779
394  3 0.0000 42.866993  7.436568 10.361499
395  3 0.0000 54.729165 10.683481 16.585218
396  3 0.0000 66.591337 13.930395 22.808938
397  3 0.0000 42.866993 11.209421  4.137779
398  3 0.0000 54.729166 14.456335 10.361499
399  3 0.0000 66.591338 17.703249 16.585218
400  3 0.0000 78.453510 20.950163 22.808938
401  3 0.0000 16.954265  6.057496  2.665273
402  3 0.0000 28.816438  9.304410  8.888992
403  3 0.0000 40.678610 12.551324 15.112712
404  3 0.0000 52.540782 15.798238 21.336431
405  3 0.0000 28.816438 13.077264  2.665273
406  3 0.0000 40.678610 16.324178  8.888992
407  3 0.0000 52.540782 19.571092 15.112712
408  3 0.0000 64.402954 22.818005 21.336431
409  3 0.0000 30.737889  6.057496  2.665273
410  3 0.0000 42.600061  9.304410  8.888992
411  3 0.0000 54.462233 12.551324 15.112712
412  3 0.0000 66.324405 15.798238 21.336431
413  3 0.0000 42.600062 13.077264  2.665273
414  3 0.0000 54.462234 16.324178  8.888992
415  3 0.0000 66.324406 19.571092 15.112712
416  3 0.0000 78.186578 22.818005 21.336431
417  3 0.0000 17.675805  3.945580  1.800660
418  3 0.0000 29.537977  7.192494  8.024380
419  3 0.0000 41.400149 10.439408 14.248100
420  3 0.0000 53.262321 13.686322 20.471819
421  3 0.0000 29.537977 10.965348  1.800660
422  3 0.0000 41.400150 14.212261  8.024380
423  3 0.0000 53.262322 17.459175 14.248100
424  3 0.0000 65.124494 20.706089 20.471819
425  3 0.0000 31.459428  3.945580  1.800660
426  3 0.0000 43.321600  7.192494  8.024380
427  3 0.0000 55.183773 10.439408 14.248100
428  3 0.0000 67.045945 13.686322 20.471819
429  3 0.0000 43.321601 10.965348  1.800660
430  3 0.0000 55.183773 14.212261  8.024380
431  3 0.0000 67.045945 17.459175 14.248100
432  3 0.0000 78.908117 20.706089 20.471819
433  3 0.0000 13.661891  3.215400  5.197800
434  3 0.0000 25.524063  6.462314 11.421520
435  3 0.0000 37.386235  9.709228 17.645240
436  3 0.0000 49.248407 12.956142 23.868959
437  3 0.0000 25.524063 10.235168  5.197800
438  3 0.0000 37.386236 13.482082 11.421520
439  3 0.0000 49.248408 16.728996 17.645240
440  3 0.0000 61.110580 19.975910 23.868959
441  3 0.0000 27.445514  3.215400  5.197800
442  3 0.0000 39.307686  6.462314 11.421520
443  3 0.0000 51.169859  9.709228 17.645240
444  3 0.0000 63.032031 12.956142 23.868959
445  3 0.0000 39.307687 10.235168  5.197800
446  3 0.0000 51.169859 13.482082 11.421520
447  3 0.0000 63.032031 16.728996 17.645240
448  3 0.0000 74.894203 19.975910 23.868959
449  3 0.0000 13.394959  6.546680  1.311199
450  3 0.0000 25.257131  9.793594  7.534919
451  3 0.0000 37.119303 13.040508 13.758639
452  3 0.0000 48.981476 16.287422 19.982358
453  3 0.0000 25.257132 13.566448  1.311199
454  3 0.0000 37.119304 16.813362  7.534919
455  3 0.0000 48.981476 20.060276 13.758639
456  3 0.0000 60.843648 23.307190 19.982358
457  3 0.0000 27.178583  6.546680  1.311199
458  3 0.0000 39.040755  9.793594  7.534919
459  3 0.0000 50.902927 13.040508 13.758639
460  3 0.0000 62.765099 16.287422 19.982358
461  3 0.0000 39.040755 13.566448  1.311199
462  3 0.0000 50.902927 16.813362  7.534919
463  3 0.0000 62.765100 20.060276 13.758639
464  3 0.0000 74.627272 23.307190 19.982358
465  3 0.0000 14.861803  1.711894  0.446587
466  3 0.0000 26.723975  4.958808  6.670307
467  3 0.0000 38.586147  8.205721 12.894027
468  3 0.0000 50.448319 11.452635 19.117746
469  3 0.0000 26.723975  8.731661  0.446587
470  3 0.0000 38.586147 11.978575  6.670307
471  3 0.0000 50.448320 15.225489 12.894027
472  3 0.0000 62.310492 18.472403 19.117746
473  3 0.0000 28.645426  1.711894  0.446587
474  3 0.0000 40.507598  4.958808  6.670307
475  3 0.0000 52.369770  8.205721 12.894027
476  3 0.0000 64.231943 11.452635 19.117746
477  3 0.0000 40.507599  8.731661  0.446587
478  3 0.0000 52.369771 11.978575  6.670307
479  3 0.0000 64.231943 15.225489 12.894027
480  3 0.0000 76.094115 18.472403 19.117746
481  3 0.0000 19.446781  8.143149  2.951762
482  3 0.0000 31.308953 11.390063  9.175482
483  3 0.0000 43.171125 14.636977 15.399201
484  3 0.0000 55.033297 17.883891 21.622921
485  3 0.0000 31.308953 15.162917  2.951762
486  3 0.0000 43.171125 18.409831  9.175482
487  3 0.0000 55.033297 21.656745 15.399201
488  3 0.0000 66.895470 24.903659 21.622921
489  3 0.0000 33.230404  8.143149  2.951762
490  3 0.0000 45.092576 11.390063  9.175482
491  3 0.0000 56.954748 14.636977 15.399201
492  3 0.0000 68.816920 17.883891 21.622921
493  3 0.0000 45.092577 15.162917  2.951762
494  3 0.0000 56.954749 18.409831  9.175482
495  3 0.0000 68.816921 21.656745 15.399201
496  3 0.0000 80.679093 24.903659 21.622921
497  3 0.0000 20.883049  3.956510  1.202227
498  3 0.0000 32.745221  7.203424  7.425946
499  3 0.0000 44.607393 10.450338 13.649666
500  3 0.0000 56.469565 13.697252 19.873386
501  3 0.0000 32.745222 10.976278  1.202227
502  3 0.0000 44.607394 14.223192  7.425946
503  3 0.0000 56.469566 17.470106 13.649666
504  3 0.0000 68.331738 20.717019 19.873386
505  3 0.0000 34.666672  3.956510  1.202227
506  3 0.0000 46.528845  7.203424  7.425946
507  3 0.0000 58.391017 10.450338 13.649666
508  3 0.0000 70.253189 13.697252 19.873386
509  3 0.0000 46.528845 10.976278  1.202227
510  3 0.0000 58.391017 14.223192  7.425946
511  3 0.0000 70.253189 17.470106 13.649666
512  3 0.0000 82.115361 20.717019 19.873386
513  3 0.0000 19.986915  4.410241  5.854405
514  3 0.0000 31.849087  7.657155 12.078124
515  3 0.0000 43.711259 10.904068 18.301844
516  3 0.0000 55.573431 14.150982 24.525564
517  3 0.0000 31.849087 11.430008  5.854405
518  3 0.0000 43.711260 14.676922 12.078124
519  3 0.0000 55.573432 17.923836 18.301844
520  3 0.0000 67.435604 21.170750 24.525564
521  3 0.0000 33.770538  4.410241  5.854405
522  3 0.0000 45.632710  7.657155 12.078124
523  3 0.0000 57.494883 10.904068 18.301844
524  3 0.0000 69.357055 14.150982 24.525564
525  3 0.0000 45.632711 11.430008  5.854405
526  3 0.0000 57.494883 14.676922 12.078124
527  3 0.0000 69.357055 17.923836 18.301844
528  3 0.0000 81.219227 21.170750 24.525564
529  3 0.0000 11.654559  2.237409  0.160098
530  3 0.0000 23.516731  5.484323  6.383818
531  3 0.0000 35.378903  8.731236 12.607537
532  3 0.0000 47.241075 11.978150 18.831257
533  3 0.0000 23.516731  9.257176  0.160098
534  3 0.0000 35.378903 12.504090  6.383818
535  3 0.0000 47.241076 15.751004 12.607537
536  3 0.0000 59.103248 18.997918 18.831257
537  3 0.0000 25.438182  2.237409  0.160098
538  3 0.0000 37.300354  5.484323  6.383818
539  3 0.0000 49.162526  8.731236 12.607537
540  3 0.0000 61.024699 11.978150 18.831257
541  3 0.0000 37.300355  9.257176  0.160098
542  3 0.0000 49.162527 12.504090  6.383818
543  3 0.0000 61.024699 15.751004 12.607537
544  3 0.0000 72.886871 18.997918 18.831257
545  3 0.0000 11.169376  1.996704  3.481175
546  3 0.0000 23.031548  5.243618  9.704894
547  3 0.0000 34.893720  8.490532 15.928614
548  3 0.0000 46.755892 11.737446 22.152334
549  3 0.0000 23.031548  9.016471  3.481175
550  3 0.0000 34.893721 12.263385  9.704894
551  3 0.0000 46.755893 15.510299 15.928614
552  3 0.0000 58.618065 18.757213 22.152334
553  3 0.0000 24.952999  1.996704  3.481175
554  3 0.0000 36.815171  5.243618  9.704894
555  3 0.0000 48.677344  8.490532 15.928614
556  3 0.0000 60.539516 11.737446 22.152334
557  3 0.0000 36.815172  9.016471  3.481175
558  3 0.0000 48.677344 12.263385  9.704894
559  3 0.0000 60.539516 15.510299 15.928614
560  3 0.0000 72.401688 18.757213 22.152334
561  3 0.0000 10.629241  4.922691  1.909633
562  3 0.0000 22.491414  8.169605  8.133353
563  3 0.0000 34.353586 11.416519 14.357072
564  3 0.0000 46.215758 14.663433 20.580792
565  3 0.0000 22.491414 11.942459  1.909633
566  3 0.0000 34.353586 15.189373  8.133353
567  3 0.0000 46.215758 18.436287 14.357072
568  3 0.0000 58.077930 21.683201 20.580792
569  3 0.0000 24.412865  4.922691  1.909633
570  3 0.0000 36.275037  8.169605  8.133353
571  3 0.0000 48.137209 11.416519 14.357072
572  3 0.0000 59.999381 14.663433 20.580792
573  3 0.0000 36.275038 11.942459  1.909633
574  3 0.0000 48.137210 15.189373  8.133353
575  3 0.0000 59.999382 18.436287 14.357072
576  3 0.0000 71.861554 21.683201 20.580792
577  3 0.0000 18.061188  2.123532  3.271958
578  3 0.0000 29.923360  5.370446  9.495677
579  3 0.0000 41.785532  8.617360 15.719397
580  3 0.0000 53.647704 11.864274 21.943117
581  3 0.0000 29.923360  9.143300  3.271958
582  3 0.0000 41.785532 12.390214  9.495677
583  3 0.0000 53.647704 15.637128 15.719397
584  3 0.0000 65.509877 18.884042 21.943117
585  3 0.0000 31.844811  2.123532  3.271958
586  3 0.0000 43.706983  5.370446  9.495677
587  3 0.0000 55.569155  8.617360 15.719397
588  3 0.0000 67.431328 11.864274 21.943117
589  3 0.0000 43.706984  9.143300  3.271958
590  3 0.0000 55.569156 12.390214  9.495677
591  3 0.0000 67.431328 15.637128 15.719397
592  3 0.0000 79.293500 18.884042 21.943117
593  3 0.0000 16.624919  6.310171  5.021493
594  3 0.0000 28.487091  9.557085 11.245212
595  3 0.0000 40.349263 12.803999 17.468932
596  3 0.0000 52.211436 16.050913 23.692652
597  3 0.0000 28.487092 13.329939  5.021493
598  3 0.0000 40.349264 16.576853 11.245212
599  3 0.0000 52.211436 19.823767 17.468932
600  3 0.0000 64.073608 23.070681 23.692652
601  3 0.0000 30.408543  6.310171  5.021493
602  3 0.0000 42.270715  9.557085 11.245212
603  3 0.0000 54.132887 12.803999 17.468932
604  3 0.0000 65.995059 16.050913 23.692652
605  3 0.0000 42.270715 13.329939  5.021493
606  3 0.0000 54.132887 16.576853 11.245212
607  3 0.0000 65.995059 19.823767 17.468932
608  3 0.0000 77.857232 23.070681 23.692652
609  3 0.0000 17.521053  5.856441  0.369315
610  3 0.0000 29.383225  9.103355  6.593034
611  3 0.0000 41.245398 12.350269 12.816754
612  3 0.0000 53.107570 15.597183 19.040474
613  3 0.0000 29.383226 12.876209  0.369315
614  3 0.0000 41.245398 16.123122  6.593034
615  3 0.0000 53.107570 19.370036 12.816754
616  3 0.0000 64.969742 22.616950 19.040474
617  3 0.0000 31.304677  5.856441  0.369315
618  3 0.0000 43.166849  9.103355  6.593034
619  3 0.0000 55.029021 12.350269 12.816754
620  3 0.0000 66.891193 15.597183 19.040474
621  3 0.0000 43.166849 12.876209  0.369315
622  3 0.0000 55.029022 16.123122  6.593034
623  3 0.0000 66.891194 19.370036 12.816754
624  3 0.0000 78.753366 22.616950 19.040474
625  3 0.0000 25.853410  8.029273  6.063622
626  3 0.0000 37.715582 11.276187 12.287341
627  3 0.0000 49.577754 14.523101 18.511061
628  3 0.0000 61.439926 17.770015 24.734781
629  3 0.0000 37.715582 15.049041  6.063622
630  3 0.0000 49.577754 18.295954 12.287341
631  3 0.0000 61.439926 21.542868 18.511061
632  3 0.0000 73.302099 24.789782 24.734781
633  3 0.0000 39.637033  8.029273  6.063622
634  3 0.0000 51.499205 11.276187 12.287341
635  3 0.0000 63.361377 14.523101 18.511061
636  3 0.0000 75.223549 17.770015 24.734781
637  3 0.0000 51.499206 15.049041  6.063622
638  3 0.0000 63.361378 18.295954 12.287341
639  3 0.0000 75.223550 21.542868 18.511061
640  3 0.0000 87.085722 24.789782 24.734781
641  3 0.0000 26.338592  8.269978  2.742545
642  3 0.0000 38.200764 11.516892  8.966265
643  3 0.0000 50.062937 14.763806 15.189984
644  3 0.0000 61.925109 18.010720 21.413704
645  3 0.0000 38.200765 15.289745  2.742545
646  3 0.0000 50.062937 18.536659  8.966265
647  3 0.0000 61.925109 21.783573 15.189984
648  3 0.0000 73.787281 25.030487 21.413704
649  3 0.0000 40.122216  8.269978  2.742545
650  3 0.0000 51.984388 11.516892  8.966265
651  3 0.0000 63.846560 14.763806 15.189984
652  3 0.0000 75.708732 18.010720 21.413704
653  3 0.0000 51.984388 15.289745  2.742545
654  3 0.0000 63.846560 18.536659  8.966265
655  3 0.0000 75.708733 21.783573 15.189984
656  3 0.0000 87.570905 25.030487 21.413704
657  3 0.0000 26.878727  5.343990  4.314087
658  3 0.0000 38.740899  8.590904 10.537806
659  3 0.0000 50.603071 11.837818 16.761526
660  3 0.0000 62.465243 15.084732 22.985246
661  3 0.0000 38.740899 12.363758  4.314087
662  3 0.0000 50.603071 15.610672 10.537806
663  3 0.0000 62.465244 18.857586 16.761526
664  3 0.0000 74.327416 22.104500 22.985246
665  3 0.0000 40.662350  5.343990  4.314087
666  3 0.0000 52.524522  8.590904 10.537806
667  3 0.0000 64.386694 11.837818 16.761526
668  3 0.0000 76.248867 15.084732 22.985246
669  3 0.0000 52.524523 12.363758  4.314087
670  3 0.0000 64.386695 15.610672 10.537806
671  3 0.0000 76.248867 18.857586 16.761526
672  3 0.0000 88.111039 22.104500 22.985246

