Generated by pymatgen.io.lammps.data.LammpsData

80  atoms

 3  atom types

0.000000 7.980758  xlo xhi
0.000000 7.980758  ylo yhi
0.000000 16.410622  zlo zhi

Masses

1  137.3270
2   47.8670
3   15.9994

Atoms

1   1 0.0000 1.995190 1.995190  2.389967
2   1 0.0000 1.995190 1.995190  6.492622
3   1 0.0000 1.995190 1.995190 10.595278
4   1 0.0000 1.995190 1.995190 14.697933
5   1 0.0000 1.995190 5.985569  2.389967
6   1 0.0000 1.995190 5.985569  6.492622
7   1 0.0000 1.995190 5.985569 10.595278
8   1 0.0000 1.995190 5.985569 14.697933
9   1 0.0000 5.985569 1.995190  2.389967
10  1 0.0000 5.985569 1.995190  6.492622
11  1 0.0000 5.985569 1.995190 10.595278
12  1 0.0000 5.985569 1.995190 14.697933
13  1 0.0000 5.985569 5.985569  2.389967
14  1 0.0000 5.985569 5.985569  6.492622
15  1 0.0000 5.985569 5.985569 10.595278
16  1 0.0000 5.985569 5.985569 14.697933
17  2 0.0000 0.000000 0.000000  0.410441
18  2 0.0000 0.000000 0.000000  4.513096
19  2 0.0000 0.000000 0.000000  8.615752
20  2 0.0000 0.000000 0.000000 12.718407
21  2 0.0000 0.000000 3.990379  0.410441
22  2 0.0000 0.000000 3.990379  4.513096
23  2 0.0000 0.000000 3.990379  8.615752
24  2 0.0000 0.000000 3.990379 12.718407
25  2 0.0000 3.990379 0.000000  0.410441
26  2 0.0000 3.990379 0.000000  4.513096
27  2 0.0000 3.990379 0.000000  8.615752
28  2 0.0000 3.990379 0.000000 12.718407
29  2 0.0000 3.990379 3.990379  0.410441
30  2 0.0000 3.990379 3.990379  4.513096
31  2 0.0000 3.990379 3.990379  8.615752
32  2 0.0000 3.990379 3.990379 12.718407
33  3 0.0000 0.000000 1.995190  0.263475
34  3 0.0000 0.000000 1.995190  4.366130
35  3 0.0000 0.000000 1.995190  8.468786
36  3 0.0000 0.000000 1.995190 12.571441
37  3 0.0000 0.000000 5.985569  0.263475
38  3 0.0000 0.000000 5.985569  4.366130
39  3 0.0000 0.000000 5.985569  8.468786
40  3 0.0000 0.000000 5.985569 12.571441
41  3 0.0000 3.990379 1.995190  0.263475
42  3 0.0000 3.990379 1.995190  4.366130
43  3 0.0000 3.990379 1.995190  8.468786
44  3 0.0000 3.990379 1.995190 12.571441
45  3 0.0000 3.990379 5.985569  0.263475
46  3 0.0000 3.990379 5.985569  4.366130
47  3 0.0000 3.990379 5.985569  8.468786
48  3 0.0000 3.990379 5.985569 12.571441
49  3 0.0000 1.995190 0.000000  0.263475
50  3 0.0000 1.995190 0.000000  4.366130
51  3 0.0000 1.995190 0.000000  8.468786
52  3 0.0000 1.995190 0.000000 12.571441
53  3 0.0000 1.995190 3.990379  0.263475
54  3 0.0000 1.995190 3.990379  4.366130
55  3 0.0000 1.995190 3.990379  8.468786
56  3 0.0000 1.995190 3.990379 12.571441
57  3 0.0000 5.985569 0.000000  0.263475
58  3 0.0000 5.985569 0.000000  4.366130
59  3 0.0000 5.985569 0.000000  8.468786
60  3 0.0000 5.985569 0.000000 12.571441
61  3 0.0000 5.985569 3.990379  0.263475
62  3 0.0000 5.985569 3.990379  4.366130
63  3 0.0000 5.985569 3.990379  8.468786
64  3 0.0000 5.985569 3.990379 12.571441
65  3 0.0000 0.000000 0.000000  2.252242
66  3 0.0000 0.000000 0.000000  6.354897
67  3 0.0000 0.000000 0.000000 10.457553
68  3 0.0000 0.000000 0.000000 14.560208
69  3 0.0000 0.000000 3.990379  2.252242
70  3 0.0000 0.000000 3.990379  6.354897
71  3 0.0000 0.000000 3.990379 10.457553
72  3 0.0000 0.000000 3.990379 14.560208
73  3 0.0000 3.990379 0.000000  2.252242
74  3 0.0000 3.990379 0.000000  6.354897
75  3 0.0000 3.990379 0.000000 10.457553
76  3 0.0000 3.990379 0.000000 14.560208
77  3 0.0000 3.990379 3.990379  2.252242
78  3 0.0000 3.990379 3.990379  6.354897
79  3 0.0000 3.990379 3.990379 10.457553
80  3 0.0000 3.990379 3.990379 14.560208

