Generated by pymatgen.io.lammps.data.LammpsData

480  atoms

  3  atom types

0.000000 15.961517  xlo xhi
0.000000 15.961517  ylo yhi
0.000000 24.615932  zlo zhi

Masses

1  137.3270
2   47.8670
3   15.9994

Atoms

1    1 0.0000  1.995190  1.995190  2.389967
2    1 0.0000  1.995190  1.995190  6.492622
3    1 0.0000  1.995190  1.995190 10.595278
4    1 0.0000  1.995190  1.995190 14.697933
5    1 0.0000  1.995190  1.995190 18.800588
6    1 0.0000  1.995190  1.995190 22.903244
7    1 0.0000  1.995190  5.985569  2.389967
8    1 0.0000  1.995190  5.985569  6.492622
9    1 0.0000  1.995190  5.985569 10.595278
10   1 0.0000  1.995190  5.985569 14.697933
11   1 0.0000  1.995190  5.985569 18.800588
12   1 0.0000  1.995190  5.985569 22.903244
13   1 0.0000  1.995190  9.975948  2.389967
14   1 0.0000  1.995190  9.975948  6.492622
15   1 0.0000  1.995190  9.975948 10.595278
16   1 0.0000  1.995190  9.975948 14.697933
17   1 0.0000  1.995190  9.975948 18.800588
18   1 0.0000  1.995190  9.975948 22.903244
19   1 0.0000  1.995190 13.966327  2.389967
20   1 0.0000  1.995190 13.966327  6.492622
21   1 0.0000  1.995190 13.966327 10.595278
22   1 0.0000  1.995190 13.966327 14.697933
23   1 0.0000  1.995190 13.966327 18.800588
24   1 0.0000  1.995190 13.966327 22.903244
25   1 0.0000  5.985569  1.995190  2.389967
26   1 0.0000  5.985569  1.995190  6.492622
27   1 0.0000  5.985569  1.995190 10.595278
28   1 0.0000  5.985569  1.995190 14.697933
29   1 0.0000  5.985569  1.995190 18.800588
30   1 0.0000  5.985569  1.995190 22.903244
31   1 0.0000  5.985569  5.985569  2.389967
32   1 0.0000  5.985569  5.985569  6.492622
33   1 0.0000  5.985569  5.985569 10.595278
34   1 0.0000  5.985569  5.985569 14.697933
35   1 0.0000  5.985569  5.985569 18.800588
36   1 0.0000  5.985569  5.985569 22.903244
37   1 0.0000  5.985569  9.975948  2.389967
38   1 0.0000  5.985569  9.975948  6.492622
39   1 0.0000  5.985569  9.975948 10.595278
40   1 0.0000  5.985569  9.975948 14.697933
41   1 0.0000  5.985569  9.975948 18.800588
42   1 0.0000  5.985569  9.975948 22.903244
43   1 0.0000  5.985569 13.966327  2.389967
44   1 0.0000  5.985569 13.966327  6.492622
45   1 0.0000  5.985569 13.966327 10.595278
46   1 0.0000  5.985569 13.966327 14.697933
47   1 0.0000  5.985569 13.966327 18.800588
48   1 0.0000  5.985569 13.966327 22.903244
49   1 0.0000  9.975948  1.995190  2.389967
50   1 0.0000  9.975948  1.995190  6.492622
51   1 0.0000  9.975948  1.995190 10.595278
52   1 0.0000  9.975948  1.995190 14.697933
53   1 0.0000  9.975948  1.995190 18.800588
54   1 0.0000  9.975948  1.995190 22.903244
55   1 0.0000  9.975948  5.985569  2.389967
56   1 0.0000  9.975948  5.985569  6.492622
57   1 0.0000  9.975948  5.985569 10.595278
58   1 0.0000  9.975948  5.985569 14.697933
59   1 0.0000  9.975948  5.985569 18.800588
60   1 0.0000  9.975948  5.985569 22.903244
61   1 0.0000  9.975948  9.975948  2.389967
62   1 0.0000  9.975948  9.975948  6.492622
63   1 0.0000  9.975948  9.975948 10.595278
64   1 0.0000  9.975948  9.975948 14.697933
65   1 0.0000  9.975948  9.975948 18.800588
66   1 0.0000  9.975948  9.975948 22.903244
67   1 0.0000  9.975948 13.966327  2.389967
68   1 0.0000  9.975948 13.966327  6.492622
69   1 0.0000  9.975948 13.966327 10.595278
70   1 0.0000  9.975948 13.966327 14.697933
71   1 0.0000  9.975948 13.966327 18.800588
72   1 0.0000  9.975948 13.966327 22.903244
73   1 0.0000 13.966327  1.995190  2.389967
74   1 0.0000 13.966327  1.995190  6.492622
75   1 0.0000 13.966327  1.995190 10.595278
76   1 0.0000 13.966327  1.995190 14.697933
77   1 0.0000 13.966327  1.995190 18.800588
78   1 0.0000 13.966327  1.995190 22.903244
79   1 0.0000 13.966327  5.985569  2.389967
80   1 0.0000 13.966327  5.985569  6.492622
81   1 0.0000 13.966327  5.985569 10.595278
82   1 0.0000 13.966327  5.985569 14.697933
83   1 0.0000 13.966327  5.985569 18.800588
84   1 0.0000 13.966327  5.985569 22.903244
85   1 0.0000 13.966327  9.975948  2.389967
86   1 0.0000 13.966327  9.975948  6.492622
87   1 0.0000 13.966327  9.975948 10.595278
88   1 0.0000 13.966327  9.975948 14.697933
89   1 0.0000 13.966327  9.975948 18.800588
90   1 0.0000 13.966327  9.975948 22.903244
91   1 0.0000 13.966327 13.966327  2.389967
92   1 0.0000 13.966327 13.966327  6.492622
93   1 0.0000 13.966327 13.966327 10.595278
94   1 0.0000 13.966327 13.966327 14.697933
95   1 0.0000 13.966327 13.966327 18.800588
96   1 0.0000 13.966327 13.966327 22.903244
97   2 0.0000  0.000000  0.000000  0.410441
98   2 0.0000  0.000000  0.000000  4.513096
99   2 0.0000  0.000000  0.000000  8.615752
100  2 0.0000  0.000000  0.000000 12.718407
101  2 0.0000  0.000000  0.000000 16.821062
102  2 0.0000  0.000000  0.000000 20.923718
103  2 0.0000  0.000000  3.990379  0.410441
104  2 0.0000  0.000000  3.990379  4.513096
105  2 0.0000  0.000000  3.990379  8.615752
106  2 0.0000  0.000000  3.990379 12.718407
107  2 0.0000  0.000000  3.990379 16.821062
108  2 0.0000  0.000000  3.990379 20.923718
109  2 0.0000  0.000000  7.980758  0.410441
110  2 0.0000  0.000000  7.980758  4.513096
111  2 0.0000  0.000000  7.980758  8.615752
112  2 0.0000  0.000000  7.980758 12.718407
113  2 0.0000  0.000000  7.980758 16.821062
114  2 0.0000  0.000000  7.980758 20.923718
115  2 0.0000  0.000000 11.971138  0.410441
116  2 0.0000  0.000000 11.971138  4.513096
117  2 0.0000  0.000000 11.971138  8.615752
118  2 0.0000  0.000000 11.971138 12.718407
119  2 0.0000  0.000000 11.971138 16.821062
120  2 0.0000  0.000000 11.971138 20.923718
121  2 0.0000  3.990379  0.000000  0.410441
122  2 0.0000  3.990379  0.000000  4.513096
123  2 0.0000  3.990379  0.000000  8.615752
124  2 0.0000  3.990379  0.000000 12.718407
125  2 0.0000  3.990379  0.000000 16.821062
126  2 0.0000  3.990379  0.000000 20.923718
127  2 0.0000  3.990379  3.990379  0.410441
128  2 0.0000  3.990379  3.990379  4.513096
129  2 0.0000  3.990379  3.990379  8.615752
130  2 0.0000  3.990379  3.990379 12.718407
131  2 0.0000  3.990379  3.990379 16.821062
132  2 0.0000  3.990379  3.990379 20.923718
133  2 0.0000  3.990379  7.980758  0.410441
134  2 0.0000  3.990379  7.980758  4.513096
135  2 0.0000  3.990379  7.980758  8.615752
136  2 0.0000  3.990379  7.980758 12.718407
137  2 0.0000  3.990379  7.980758 16.821062
138  2 0.0000  3.990379  7.980758 20.923718
139  2 0.0000  3.990379 11.971138  0.410441
140  2 0.0000  3.990379 11.971138  4.513096
141  2 0.0000  3.990379 11.971138  8.615752
142  2 0.0000  3.990379 11.971138 12.718407
143  2 0.0000  3.990379 11.971138 16.821062
144  2 0.0000  3.990379 11.971138 20.923718
145  2 0.0000  7.980758  0.000000  0.410441
146  2 0.0000  7.980758  0.000000  4.513096
147  2 0.0000  7.980758  0.000000  8.615752
148  2 0.0000  7.980758  0.000000 12.718407
149  2 0.0000  7.980758  0.000000 16.821062
150  2 0.0000  7.980758  0.000000 20.923718
151  2 0.0000  7.980758  3.990379  0.410441
152  2 0.0000  7.980758  3.990379  4.513096
153  2 0.0000  7.980758  3.990379  8.615752
154  2 0.0000  7.980758  3.990379 12.718407
155  2 0.0000  7.980758  3.990379 16.821062
156  2 0.0000  7.980758  3.990379 20.923718
157  2 0.0000  7.980758  7.980758  0.410441
158  2 0.0000  7.980758  7.980758  4.513096
159  2 0.0000  7.980758  7.980758  8.615752
160  2 0.0000  7.980758  7.980758 12.718407
161  2 0.0000  7.980758  7.980758 16.821062
162  2 0.0000  7.980758  7.980758 20.923718
163  2 0.0000  7.980758 11.971138  0.410441
164  2 0.0000  7.980758 11.971138  4.513096
165  2 0.0000  7.980758 11.971138  8.615752
166  2 0.0000  7.980758 11.971138 12.718407
167  2 0.0000  7.980758 11.971138 16.821062
168  2 0.0000  7.980758 11.971138 20.923718
169  2 0.0000 11.971138  0.000000  0.410441
170  2 0.0000 11.971138  0.000000  4.513096
171  2 0.0000 11.971138  0.000000  8.615752
172  2 0.0000 11.971138  0.000000 12.718407
173  2 0.0000 11.971138  0.000000 16.821062
174  2 0.0000 11.971138  0.000000 20.923718
175  2 0.0000 11.971138  3.990379  0.410441
176  2 0.0000 11.971138  3.990379  4.513096
177  2 0.0000 11.971138  3.990379  8.615752
178  2 0.0000 11.971138  3.990379 12.718407
179  2 0.0000 11.971138  3.990379 16.821062
180  2 0.0000 11.971138  3.990379 20.923718
181  2 0.0000 11.971138  7.980758  0.410441
182  2 0.0000 11.971138  7.980758  4.513096
183  2 0.0000 11.971138  7.980758  8.615752
184  2 0.0000 11.971138  7.980758 12.718407
185  2 0.0000 11.971138  7.980758 16.821062
186  2 0.0000 11.971138  7.980758 20.923718
187  2 0.0000 11.971138 11.971138  0.410441
188  2 0.0000 11.971138 11.971138  4.513096
189  2 0.0000 11.971138 11.971138  8.615752
190  2 0.0000 11.971138 11.971138 12.718407
191  2 0.0000 11.971138 11.971138 16.821062
192  2 0.0000 11.971138 11.971138 20.923718
193  3 0.0000  0.000000  1.995190  0.263475
194  3 0.0000  0.000000  1.995190  4.366130
195  3 0.0000  0.000000  1.995190  8.468786
196  3 0.0000  0.000000  1.995190 12.571441
197  3 0.0000  0.000000  1.995190 16.674096
198  3 0.0000  0.000000  1.995190 20.776752
199  3 0.0000  0.000000  5.985569  0.263475
200  3 0.0000  0.000000  5.985569  4.366130
201  3 0.0000  0.000000  5.985569  8.468786
202  3 0.0000  0.000000  5.985569 12.571441
203  3 0.0000  0.000000  5.985569 16.674096
204  3 0.0000  0.000000  5.985569 20.776752
205  3 0.0000  0.000000  9.975948  0.263475
206  3 0.0000  0.000000  9.975948  4.366130
207  3 0.0000  0.000000  9.975948  8.468786
208  3 0.0000  0.000000  9.975948 12.571441
209  3 0.0000  0.000000  9.975948 16.674096
210  3 0.0000  0.000000  9.975948 20.776752
211  3 0.0000  0.000000 13.966327  0.263475
212  3 0.0000  0.000000 13.966327  4.366130
213  3 0.0000  0.000000 13.966327  8.468786
214  3 0.0000  0.000000 13.966327 12.571441
215  3 0.0000  0.000000 13.966327 16.674096
216  3 0.0000  0.000000 13.966327 20.776752
217  3 0.0000  3.990379  1.995190  0.263475
218  3 0.0000  3.990379  1.995190  4.366130
219  3 0.0000  3.990379  1.995190  8.468786
220  3 0.0000  3.990379  1.995190 12.571441
221  3 0.0000  3.990379  1.995190 16.674096
222  3 0.0000  3.990379  1.995190 20.776752
223  3 0.0000  3.990379  5.985569  0.263475
224  3 0.0000  3.990379  5.985569  4.366130
225  3 0.0000  3.990379  5.985569  8.468786
226  3 0.0000  3.990379  5.985569 12.571441
227  3 0.0000  3.990379  5.985569 16.674096
228  3 0.0000  3.990379  5.985569 20.776752
229  3 0.0000  3.990379  9.975948  0.263475
230  3 0.0000  3.990379  9.975948  4.366130
231  3 0.0000  3.990379  9.975948  8.468786
232  3 0.0000  3.990379  9.975948 12.571441
233  3 0.0000  3.990379  9.975948 16.674096
234  3 0.0000  3.990379  9.975948 20.776752
235  3 0.0000  3.990379 13.966327  0.263475
236  3 0.0000  3.990379 13.966327  4.366130
237  3 0.0000  3.990379 13.966327  8.468786
238  3 0.0000  3.990379 13.966327 12.571441
239  3 0.0000  3.990379 13.966327 16.674096
240  3 0.0000  3.990379 13.966327 20.776752
241  3 0.0000  7.980758  1.995190  0.263475
242  3 0.0000  7.980758  1.995190  4.366130
243  3 0.0000  7.980758  1.995190  8.468786
244  3 0.0000  7.980758  1.995190 12.571441
245  3 0.0000  7.980758  1.995190 16.674096
246  3 0.0000  7.980758  1.995190 20.776752
247  3 0.0000  7.980758  5.985569  0.263475
248  3 0.0000  7.980758  5.985569  4.366130
249  3 0.0000  7.980758  5.985569  8.468786
250  3 0.0000  7.980758  5.985569 12.571441
251  3 0.0000  7.980758  5.985569 16.674096
252  3 0.0000  7.980758  5.985569 20.776752
253  3 0.0000  7.980758  9.975948  0.263475
254  3 0.0000  7.980758  9.975948  4.366130
255  3 0.0000  7.980758  9.975948  8.468786
256  3 0.0000  7.980758  9.975948 12.571441
257  3 0.0000  7.980758  9.975948 16.674096
258  3 0.0000  7.980758  9.975948 20.776752
259  3 0.0000  7.980758 13.966327  0.263475
260  3 0.0000  7.980758 13.966327  4.366130
261  3 0.0000  7.980758 13.966327  8.468786
262  3 0.0000  7.980758 13.966327 12.571441
263  3 0.0000  7.980758 13.966327 16.674096
264  3 0.0000  7.980758 13.966327 20.776752
265  3 0.0000 11.971138  1.995190  0.263475
266  3 0.0000 11.971138  1.995190  4.366130
267  3 0.0000 11.971138  1.995190  8.468786
268  3 0.0000 11.971138  1.995190 12.571441
269  3 0.0000 11.971138  1.995190 16.674096
270  3 0.0000 11.971138  1.995190 20.776752
271  3 0.0000 11.971138  5.985569  0.263475
272  3 0.0000 11.971138  5.985569  4.366130
273  3 0.0000 11.971138  5.985569  8.468786
274  3 0.0000 11.971138  5.985569 12.571441
275  3 0.0000 11.971138  5.985569 16.674096
276  3 0.0000 11.971138  5.985569 20.776752
277  3 0.0000 11.971138  9.975948  0.263475
278  3 0.0000 11.971138  9.975948  4.366130
279  3 0.0000 11.971138  9.975948  8.468786
280  3 0.0000 11.971138  9.975948 12.571441
281  3 0.0000 11.971138  9.975948 16.674096
282  3 0.0000 11.971138  9.975948 20.776752
283  3 0.0000 11.971138 13.966327  0.263475
284  3 0.0000 11.971138 13.966327  4.366130
285  3 0.0000 11.971138 13.966327  8.468786
286  3 0.0000 11.971138 13.966327 12.571441
287  3 0.0000 11.971138 13.966327 16.674096
288  3 0.0000 11.971138 13.966327 20.776752
289  3 0.0000  1.995190  0.000000  0.263475
290  3 0.0000  1.995190  0.000000  4.366130
291  3 0.0000  1.995190  0.000000  8.468786
292  3 0.0000  1.995190  0.000000 12.571441
293  3 0.0000  1.995190  0.000000 16.674096
294  3 0.0000  1.995190  0.000000 20.776752
295  3 0.0000  1.995190  3.990379  0.263475
296  3 0.0000  1.995190  3.990379  4.366130
297  3 0.0000  1.995190  3.990379  8.468786
298  3 0.0000  1.995190  3.990379 12.571441
299  3 0.0000  1.995190  3.990379 16.674096
300  3 0.0000  1.995190  3.990379 20.776752
301  3 0.0000  1.995190  7.980758  0.263475
302  3 0.0000  1.995190  7.980758  4.366130
303  3 0.0000  1.995190  7.980758  8.468786
304  3 0.0000  1.995190  7.980758 12.571441
305  3 0.0000  1.995190  7.980758 16.674096
306  3 0.0000  1.995190  7.980758 20.776752
307  3 0.0000  1.995190 11.971138  0.263475
308  3 0.0000  1.995190 11.971138  4.366130
309  3 0.0000  1.995190 11.971138  8.468786
310  3 0.0000  1.995190 11.971138 12.571441
311  3 0.0000  1.995190 11.971138 16.674096
312  3 0.0000  1.995190 11.971138 20.776752
313  3 0.0000  5.985569  0.000000  0.263475
314  3 0.0000  5.985569  0.000000  4.366130
315  3 0.0000  5.985569  0.000000  8.468786
316  3 0.0000  5.985569  0.000000 12.571441
317  3 0.0000  5.985569  0.000000 16.674096
318  3 0.0000  5.985569  0.000000 20.776752
319  3 0.0000  5.985569  3.990379  0.263475
320  3 0.0000  5.985569  3.990379  4.366130
321  3 0.0000  5.985569  3.990379  8.468786
322  3 0.0000  5.985569  3.990379 12.571441
323  3 0.0000  5.985569  3.990379 16.674096
324  3 0.0000  5.985569  3.990379 20.776752
325  3 0.0000  5.985569  7.980758  0.263475
326  3 0.0000  5.985569  7.980758  4.366130
327  3 0.0000  5.985569  7.980758  8.468786
328  3 0.0000  5.985569  7.980758 12.571441
329  3 0.0000  5.985569  7.980758 16.674096
330  3 0.0000  5.985569  7.980758 20.776752
331  3 0.0000  5.985569 11.971138  0.263475
332  3 0.0000  5.985569 11.971138  4.366130
333  3 0.0000  5.985569 11.971138  8.468786
334  3 0.0000  5.985569 11.971138 12.571441
335  3 0.0000  5.985569 11.971138 16.674096
336  3 0.0000  5.985569 11.971138 20.776752
337  3 0.0000  9.975948  0.000000  0.263475
338  3 0.0000  9.975948  0.000000  4.366130
339  3 0.0000  9.975948  0.000000  8.468786
340  3 0.0000  9.975948  0.000000 12.571441
341  3 0.0000  9.975948  0.000000 16.674096
342  3 0.0000  9.975948  0.000000 20.776752
343  3 0.0000  9.975948  3.990379  0.263475
344  3 0.0000  9.975948  3.990379  4.366130
345  3 0.0000  9.975948  3.990379  8.468786
346  3 0.0000  9.975948  3.990379 12.571441
347  3 0.0000  9.975948  3.990379 16.674096
348  3 0.0000  9.975948  3.990379 20.776752
349  3 0.0000  9.975948  7.980758  0.263475
350  3 0.0000  9.975948  7.980758  4.366130
351  3 0.0000  9.975948  7.980758  8.468786
352  3 0.0000  9.975948  7.980758 12.571441
353  3 0.0000  9.975948  7.980758 16.674096
354  3 0.0000  9.975948  7.980758 20.776752
355  3 0.0000  9.975948 11.971138  0.263475
356  3 0.0000  9.975948 11.971138  4.366130
357  3 0.0000  9.975948 11.971138  8.468786
358  3 0.0000  9.975948 11.971138 12.571441
359  3 0.0000  9.975948 11.971138 16.674096
360  3 0.0000  9.975948 11.971138 20.776752
361  3 0.0000 13.966327  0.000000  0.263475
362  3 0.0000 13.966327  0.000000  4.366130
363  3 0.0000 13.966327  0.000000  8.468786
364  3 0.0000 13.966327  0.000000 12.571441
365  3 0.0000 13.966327  0.000000 16.674096
366  3 0.0000 13.966327  0.000000 20.776752
367  3 0.0000 13.966327  3.990379  0.263475
368  3 0.0000 13.966327  3.990379  4.366130
369  3 0.0000 13.966327  3.990379  8.468786
370  3 0.0000 13.966327  3.990379 12.571441
371  3 0.0000 13.966327  3.990379 16.674096
372  3 0.0000 13.966327  3.990379 20.776752
373  3 0.0000 13.966327  7.980758  0.263475
374  3 0.0000 13.966327  7.980758  4.366130
375  3 0.0000 13.966327  7.980758  8.468786
376  3 0.0000 13.966327  7.980758 12.571441
377  3 0.0000 13.966327  7.980758 16.674096
378  3 0.0000 13.966327  7.980758 20.776752
379  3 0.0000 13.966327 11.971138  0.263475
380  3 0.0000 13.966327 11.971138  4.366130
381  3 0.0000 13.966327 11.971138  8.468786
382  3 0.0000 13.966327 11.971138 12.571441
383  3 0.0000 13.966327 11.971138 16.674096
384  3 0.0000 13.966327 11.971138 20.776752
385  3 0.0000  0.000000  0.000000  2.252242
386  3 0.0000  0.000000  0.000000  6.354897
387  3 0.0000  0.000000  0.000000 10.457553
388  3 0.0000  0.000000  0.000000 14.560208
389  3 0.0000  0.000000  0.000000 18.662863
390  3 0.0000  0.000000  0.000000 22.765519
391  3 0.0000  0.000000  3.990379  2.252242
392  3 0.0000  0.000000  3.990379  6.354897
393  3 0.0000  0.000000  3.990379 10.457553
394  3 0.0000  0.000000  3.990379 14.560208
395  3 0.0000  0.000000  3.990379 18.662863
396  3 0.0000  0.000000  3.990379 22.765519
397  3 0.0000  0.000000  7.980758  2.252242
398  3 0.0000  0.000000  7.980758  6.354897
399  3 0.0000  0.000000  7.980758 10.457553
400  3 0.0000  0.000000  7.980758 14.560208
401  3 0.0000  0.000000  7.980758 18.662863
402  3 0.0000  0.000000  7.980758 22.765519
403  3 0.0000  0.000000 11.971138  2.252242
404  3 0.0000  0.000000 11.971138  6.354897
405  3 0.0000  0.000000 11.971138 10.457553
406  3 0.0000  0.000000 11.971138 14.560208
407  3 0.0000  0.000000 11.971138 18.662863
408  3 0.0000  0.000000 11.971138 22.765519
409  3 0.0000  3.990379  0.000000  2.252242
410  3 0.0000  3.990379  0.000000  6.354897
411  3 0.0000  3.990379  0.000000 10.457553
412  3 0.0000  3.990379  0.000000 14.560208
413  3 0.0000  3.990379  0.000000 18.662863
414  3 0.0000  3.990379  0.000000 22.765519
415  3 0.0000  3.990379  3.990379  2.252242
416  3 0.0000  3.990379  3.990379  6.354897
417  3 0.0000  3.990379  3.990379 10.457553
418  3 0.0000  3.990379  3.990379 14.560208
419  3 0.0000  3.990379  3.990379 18.662863
420  3 0.0000  3.990379  3.990379 22.765519
421  3 0.0000  3.990379  7.980758  2.252242
422  3 0.0000  3.990379  7.980758  6.354897
423  3 0.0000  3.990379  7.980758 10.457553
424  3 0.0000  3.990379  7.980758 14.560208
425  3 0.0000  3.990379  7.980758 18.662863
426  3 0.0000  3.990379  7.980758 22.765519
427  3 0.0000  3.990379 11.971138  2.252242
428  3 0.0000  3.990379 11.971138  6.354897
429  3 0.0000  3.990379 11.971138 10.457553
430  3 0.0000  3.990379 11.971138 14.560208
431  3 0.0000  3.990379 11.971138 18.662863
432  3 0.0000  3.990379 11.971138 22.765519
433  3 0.0000  7.980758  0.000000  2.252242
434  3 0.0000  7.980758  0.000000  6.354897
435  3 0.0000  7.980758  0.000000 10.457553
436  3 0.0000  7.980758  0.000000 14.560208
437  3 0.0000  7.980758  0.000000 18.662863
438  3 0.0000  7.980758  0.000000 22.765519
439  3 0.0000  7.980758  3.990379  2.252242
440  3 0.0000  7.980758  3.990379  6.354897
441  3 0.0000  7.980758  3.990379 10.457553
442  3 0.0000  7.980758  3.990379 14.560208
443  3 0.0000  7.980758  3.990379 18.662863
444  3 0.0000  7.980758  3.990379 22.765519
445  3 0.0000  7.980758  7.980758  2.252242
446  3 0.0000  7.980758  7.980758  6.354897
447  3 0.0000  7.980758  7.980758 10.457553
448  3 0.0000  7.980758  7.980758 14.560208
449  3 0.0000  7.980758  7.980758 18.662863
450  3 0.0000  7.980758  7.980758 22.765519
451  3 0.0000  7.980758 11.971138  2.252242
452  3 0.0000  7.980758 11.971138  6.354897
453  3 0.0000  7.980758 11.971138 10.457553
454  3 0.0000  7.980758 11.971138 14.560208
455  3 0.0000  7.980758 11.971138 18.662863
456  3 0.0000  7.980758 11.971138 22.765519
457  3 0.0000 11.971138  0.000000  2.252242
458  3 0.0000 11.971138  0.000000  6.354897
459  3 0.0000 11.971138  0.000000 10.457553
460  3 0.0000 11.971138  0.000000 14.560208
461  3 0.0000 11.971138  0.000000 18.662863
462  3 0.0000 11.971138  0.000000 22.765519
463  3 0.0000 11.971138  3.990379  2.252242
464  3 0.0000 11.971138  3.990379  6.354897
465  3 0.0000 11.971138  3.990379 10.457553
466  3 0.0000 11.971138  3.990379 14.560208
467  3 0.0000 11.971138  3.990379 18.662863
468  3 0.0000 11.971138  3.990379 22.765519
469  3 0.0000 11.971138  7.980758  2.252242
470  3 0.0000 11.971138  7.980758  6.354897
471  3 0.0000 11.971138  7.980758 10.457553
472  3 0.0000 11.971138  7.980758 14.560208
473  3 0.0000 11.971138  7.980758 18.662863
474  3 0.0000 11.971138  7.980758 22.765519
475  3 0.0000 11.971138 11.971138  2.252242
476  3 0.0000 11.971138 11.971138  6.354897
477  3 0.0000 11.971138 11.971138 10.457553
478  3 0.0000 11.971138 11.971138 14.560208
479  3 0.0000 11.971138 11.971138 18.662863
480  3 0.0000 11.971138 11.971138 22.765519

