Generated by pymatgen.io.lammps.data.LammpsData

384  atoms

  2  atom types

0.000000 10.777109  xlo xhi
0.000000 9.333248  ylo yhi
0.000000 26.256113  zlo zhi
-5.388550 0.000000 0.000000  xy xz yz

Masses

1   9.012182
2  15.999400

Atoms

1    1 0.0000  0.000001 1.555541  0.000701
2    1 0.0000  0.000001 1.555541  4.376720
3    1 0.0000  0.000001 1.555541  8.752739
4    1 0.0000  0.000001 1.555541 13.128758
5    1 0.0000  0.000001 1.555541 17.504776
6    1 0.0000  0.000001 1.555541 21.880795
7    1 0.0000 -1.347137 3.888853  0.000701
8    1 0.0000 -1.347137 3.888853  4.376720
9    1 0.0000 -1.347137 3.888853  8.752739
10   1 0.0000 -1.347137 3.888853 13.128758
11   1 0.0000 -1.347137 3.888853 17.504776
12   1 0.0000 -1.347137 3.888853 21.880795
13   1 0.0000 -2.694275 6.222165  0.000701
14   1 0.0000 -2.694275 6.222165  4.376720
15   1 0.0000 -2.694275 6.222165  8.752739
16   1 0.0000 -2.694275 6.222165 13.128758
17   1 0.0000 -2.694275 6.222165 17.504776
18   1 0.0000 -2.694275 6.222165 21.880795
19   1 0.0000 -4.041412 8.555477  0.000701
20   1 0.0000 -4.041412 8.555477  4.376720
21   1 0.0000 -4.041412 8.555477  8.752739
22   1 0.0000 -4.041412 8.555477 13.128758
23   1 0.0000 -4.041412 8.555477 17.504776
24   1 0.0000 -4.041412 8.555477 21.880795
25   1 0.0000  2.694278 1.555541  0.000701
26   1 0.0000  2.694278 1.555541  4.376720
27   1 0.0000  2.694278 1.555541  8.752739
28   1 0.0000  2.694278 1.555541 13.128758
29   1 0.0000  2.694278 1.555541 17.504776
30   1 0.0000  2.694278 1.555541 21.880795
31   1 0.0000  1.347140 3.888853  0.000701
32   1 0.0000  1.347140 3.888853  4.376720
33   1 0.0000  1.347140 3.888853  8.752739
34   1 0.0000  1.347140 3.888853 13.128758
35   1 0.0000  1.347140 3.888853 17.504776
36   1 0.0000  1.347140 3.888853 21.880795
37   1 0.0000  0.000003 6.222165  0.000701
38   1 0.0000  0.000003 6.222165  4.376720
39   1 0.0000  0.000003 6.222165  8.752739
40   1 0.0000  0.000003 6.222165 13.128758
41   1 0.0000  0.000003 6.222165 17.504776
42   1 0.0000  0.000003 6.222165 21.880795
43   1 0.0000 -1.347135 8.555477  0.000701
44   1 0.0000 -1.347135 8.555477  4.376720
45   1 0.0000 -1.347135 8.555477  8.752739
46   1 0.0000 -1.347135 8.555477 13.128758
47   1 0.0000 -1.347135 8.555477 17.504776
48   1 0.0000 -1.347135 8.555477 21.880795
49   1 0.0000  5.388555 1.555541  0.000701
50   1 0.0000  5.388555 1.555541  4.376720
51   1 0.0000  5.388555 1.555541  8.752739
52   1 0.0000  5.388555 1.555541 13.128758
53   1 0.0000  5.388555 1.555541 17.504776
54   1 0.0000  5.388555 1.555541 21.880795
55   1 0.0000  4.041417 3.888853  0.000701
56   1 0.0000  4.041417 3.888853  4.376720
57   1 0.0000  4.041417 3.888853  8.752739
58   1 0.0000  4.041417 3.888853 13.128758
59   1 0.0000  4.041417 3.888853 17.504776
60   1 0.0000  4.041417 3.888853 21.880795
61   1 0.0000  2.694280 6.222165  0.000701
62   1 0.0000  2.694280 6.222165  4.376720
63   1 0.0000  2.694280 6.222165  8.752739
64   1 0.0000  2.694280 6.222165 13.128758
65   1 0.0000  2.694280 6.222165 17.504776
66   1 0.0000  2.694280 6.222165 21.880795
67   1 0.0000  1.347142 8.555477  0.000701
68   1 0.0000  1.347142 8.555477  4.376720
69   1 0.0000  1.347142 8.555477  8.752739
70   1 0.0000  1.347142 8.555477 13.128758
71   1 0.0000  1.347142 8.555477 17.504776
72   1 0.0000  1.347142 8.555477 21.880795
73   1 0.0000  8.082832 1.555541  0.000701
74   1 0.0000  8.082832 1.555541  4.376720
75   1 0.0000  8.082832 1.555541  8.752739
76   1 0.0000  8.082832 1.555541 13.128758
77   1 0.0000  8.082832 1.555541 17.504776
78   1 0.0000  8.082832 1.555541 21.880795
79   1 0.0000  6.735695 3.888853  0.000701
80   1 0.0000  6.735695 3.888853  4.376720
81   1 0.0000  6.735695 3.888853  8.752739
82   1 0.0000  6.735695 3.888853 13.128758
83   1 0.0000  6.735695 3.888853 17.504776
84   1 0.0000  6.735695 3.888853 21.880795
85   1 0.0000  5.388557 6.222165  0.000701
86   1 0.0000  5.388557 6.222165  4.376720
87   1 0.0000  5.388557 6.222165  8.752739
88   1 0.0000  5.388557 6.222165 13.128758
89   1 0.0000  5.388557 6.222165 17.504776
90   1 0.0000  5.388557 6.222165 21.880795
91   1 0.0000  4.041420 8.555477  0.000701
92   1 0.0000  4.041420 8.555477  4.376720
93   1 0.0000  4.041420 8.555477  8.752739
94   1 0.0000  4.041420 8.555477 13.128758
95   1 0.0000  4.041420 8.555477 17.504776
96   1 0.0000  4.041420 8.555477 21.880795
97   1 0.0000  1.347139 0.777771  2.188710
98   1 0.0000  1.347139 0.777771  6.564729
99   1 0.0000  1.347139 0.777771 10.940748
100  1 0.0000  1.347139 0.777771 15.316767
101  1 0.0000  1.347139 0.777771 19.692786
102  1 0.0000  1.347139 0.777771 24.068805
103  1 0.0000  0.000001 3.111083  2.188710
104  1 0.0000  0.000001 3.111083  6.564729
105  1 0.0000  0.000001 3.111083 10.940748
106  1 0.0000  0.000001 3.111083 15.316767
107  1 0.0000  0.000001 3.111083 19.692786
108  1 0.0000  0.000001 3.111083 24.068805
109  1 0.0000 -1.347136 5.444394  2.188710
110  1 0.0000 -1.347136 5.444394  6.564729
111  1 0.0000 -1.347136 5.444394 10.940748
112  1 0.0000 -1.347136 5.444394 15.316767
113  1 0.0000 -1.347136 5.444394 19.692786
114  1 0.0000 -1.347136 5.444394 24.068805
115  1 0.0000 -2.694274 7.777706  2.188710
116  1 0.0000 -2.694274 7.777706  6.564729
117  1 0.0000 -2.694274 7.777706 10.940748
118  1 0.0000 -2.694274 7.777706 15.316767
119  1 0.0000 -2.694274 7.777706 19.692786
120  1 0.0000 -2.694274 7.777706 24.068805
121  1 0.0000  4.041416 0.777771  2.188710
122  1 0.0000  4.041416 0.777771  6.564729
123  1 0.0000  4.041416 0.777771 10.940748
124  1 0.0000  4.041416 0.777771 15.316767
125  1 0.0000  4.041416 0.777771 19.692786
126  1 0.0000  4.041416 0.777771 24.068805
127  1 0.0000  2.694279 3.111083  2.188710
128  1 0.0000  2.694279 3.111083  6.564729
129  1 0.0000  2.694279 3.111083 10.940748
130  1 0.0000  2.694279 3.111083 15.316767
131  1 0.0000  2.694279 3.111083 19.692786
132  1 0.0000  2.694279 3.111083 24.068805
133  1 0.0000  1.347141 5.444394  2.188710
134  1 0.0000  1.347141 5.444394  6.564729
135  1 0.0000  1.347141 5.444394 10.940748
136  1 0.0000  1.347141 5.444394 15.316767
137  1 0.0000  1.347141 5.444394 19.692786
138  1 0.0000  1.347141 5.444394 24.068805
139  1 0.0000  0.000003 7.777706  2.188710
140  1 0.0000  0.000003 7.777706  6.564729
141  1 0.0000  0.000003 7.777706 10.940748
142  1 0.0000  0.000003 7.777706 15.316767
143  1 0.0000  0.000003 7.777706 19.692786
144  1 0.0000  0.000003 7.777706 24.068805
145  1 0.0000  6.735693 0.777771  2.188710
146  1 0.0000  6.735693 0.777771  6.564729
147  1 0.0000  6.735693 0.777771 10.940748
148  1 0.0000  6.735693 0.777771 15.316767
149  1 0.0000  6.735693 0.777771 19.692786
150  1 0.0000  6.735693 0.777771 24.068805
151  1 0.0000  5.388556 3.111083  2.188710
152  1 0.0000  5.388556 3.111083  6.564729
153  1 0.0000  5.388556 3.111083 10.940748
154  1 0.0000  5.388556 3.111083 15.316767
155  1 0.0000  5.388556 3.111083 19.692786
156  1 0.0000  5.388556 3.111083 24.068805
157  1 0.0000  4.041418 5.444394  2.188710
158  1 0.0000  4.041418 5.444394  6.564729
159  1 0.0000  4.041418 5.444394 10.940748
160  1 0.0000  4.041418 5.444394 15.316767
161  1 0.0000  4.041418 5.444394 19.692786
162  1 0.0000  4.041418 5.444394 24.068805
163  1 0.0000  2.694281 7.777706  2.188710
164  1 0.0000  2.694281 7.777706  6.564729
165  1 0.0000  2.694281 7.777706 10.940748
166  1 0.0000  2.694281 7.777706 15.316767
167  1 0.0000  2.694281 7.777706 19.692786
168  1 0.0000  2.694281 7.777706 24.068805
169  1 0.0000  9.429971 0.777771  2.188710
170  1 0.0000  9.429971 0.777771  6.564729
171  1 0.0000  9.429971 0.777771 10.940748
172  1 0.0000  9.429971 0.777771 15.316767
173  1 0.0000  9.429971 0.777771 19.692786
174  1 0.0000  9.429971 0.777771 24.068805
175  1 0.0000  8.082833 3.111083  2.188710
176  1 0.0000  8.082833 3.111083  6.564729
177  1 0.0000  8.082833 3.111083 10.940748
178  1 0.0000  8.082833 3.111083 15.316767
179  1 0.0000  8.082833 3.111083 19.692786
180  1 0.0000  8.082833 3.111083 24.068805
181  1 0.0000  6.735695 5.444394  2.188710
182  1 0.0000  6.735695 5.444394  6.564729
183  1 0.0000  6.735695 5.444394 10.940748
184  1 0.0000  6.735695 5.444394 15.316767
185  1 0.0000  6.735695 5.444394 19.692786
186  1 0.0000  6.735695 5.444394 24.068805
187  1 0.0000  5.388558 7.777706  2.188710
188  1 0.0000  5.388558 7.777706  6.564729
189  1 0.0000  5.388558 7.777706 10.940748
190  1 0.0000  5.388558 7.777706 15.316767
191  1 0.0000  5.388558 7.777706 19.692786
192  1 0.0000  5.388558 7.777706 24.068805
193  2 0.0000  0.000001 1.555541  1.651246
194  2 0.0000  0.000001 1.555541  6.027265
195  2 0.0000  0.000001 1.555541 10.403284
196  2 0.0000  0.000001 1.555541 14.779303
197  2 0.0000  0.000001 1.555541 19.155322
198  2 0.0000  0.000001 1.555541 23.531341
199  2 0.0000 -1.347137 3.888853  1.651246
200  2 0.0000 -1.347137 3.888853  6.027265
201  2 0.0000 -1.347137 3.888853 10.403284
202  2 0.0000 -1.347137 3.888853 14.779303
203  2 0.0000 -1.347137 3.888853 19.155322
204  2 0.0000 -1.347137 3.888853 23.531341
205  2 0.0000 -2.694275 6.222165  1.651246
206  2 0.0000 -2.694275 6.222165  6.027265
207  2 0.0000 -2.694275 6.222165 10.403284
208  2 0.0000 -2.694275 6.222165 14.779303
209  2 0.0000 -2.694275 6.222165 19.155322
210  2 0.0000 -2.694275 6.222165 23.531341
211  2 0.0000 -4.041412 8.555477  1.651246
212  2 0.0000 -4.041412 8.555477  6.027265
213  2 0.0000 -4.041412 8.555477 10.403284
214  2 0.0000 -4.041412 8.555477 14.779303
215  2 0.0000 -4.041412 8.555477 19.155322
216  2 0.0000 -4.041412 8.555477 23.531341
217  2 0.0000  2.694278 1.555541  1.651246
218  2 0.0000  2.694278 1.555541  6.027265
219  2 0.0000  2.694278 1.555541 10.403284
220  2 0.0000  2.694278 1.555541 14.779303
221  2 0.0000  2.694278 1.555541 19.155322
222  2 0.0000  2.694278 1.555541 23.531341
223  2 0.0000  1.347140 3.888853  1.651246
224  2 0.0000  1.347140 3.888853  6.027265
225  2 0.0000  1.347140 3.888853 10.403284
226  2 0.0000  1.347140 3.888853 14.779303
227  2 0.0000  1.347140 3.888853 19.155322
228  2 0.0000  1.347140 3.888853 23.531341
229  2 0.0000  0.000003 6.222165  1.651246
230  2 0.0000  0.000003 6.222165  6.027265
231  2 0.0000  0.000003 6.222165 10.403284
232  2 0.0000  0.000003 6.222165 14.779303
233  2 0.0000  0.000003 6.222165 19.155322
234  2 0.0000  0.000003 6.222165 23.531341
235  2 0.0000 -1.347135 8.555477  1.651246
236  2 0.0000 -1.347135 8.555477  6.027265
237  2 0.0000 -1.347135 8.555477 10.403284
238  2 0.0000 -1.347135 8.555477 14.779303
239  2 0.0000 -1.347135 8.555477 19.155322
240  2 0.0000 -1.347135 8.555477 23.531341
241  2 0.0000  5.388555 1.555541  1.651246
242  2 0.0000  5.388555 1.555541  6.027265
243  2 0.0000  5.388555 1.555541 10.403284
244  2 0.0000  5.388555 1.555541 14.779303
245  2 0.0000  5.388555 1.555541 19.155322
246  2 0.0000  5.388555 1.555541 23.531341
247  2 0.0000  4.041417 3.888853  1.651246
248  2 0.0000  4.041417 3.888853  6.027265
249  2 0.0000  4.041417 3.888853 10.403284
250  2 0.0000  4.041417 3.888853 14.779303
251  2 0.0000  4.041417 3.888853 19.155322
252  2 0.0000  4.041417 3.888853 23.531341
253  2 0.0000  2.694280 6.222165  1.651246
254  2 0.0000  2.694280 6.222165  6.027265
255  2 0.0000  2.694280 6.222165 10.403284
256  2 0.0000  2.694280 6.222165 14.779303
257  2 0.0000  2.694280 6.222165 19.155322
258  2 0.0000  2.694280 6.222165 23.531341
259  2 0.0000  1.347142 8.555477  1.651246
260  2 0.0000  1.347142 8.555477  6.027265
261  2 0.0000  1.347142 8.555477 10.403284
262  2 0.0000  1.347142 8.555477 14.779303
263  2 0.0000  1.347142 8.555477 19.155322
264  2 0.0000  1.347142 8.555477 23.531341
265  2 0.0000  8.082832 1.555541  1.651246
266  2 0.0000  8.082832 1.555541  6.027265
267  2 0.0000  8.082832 1.555541 10.403284
268  2 0.0000  8.082832 1.555541 14.779303
269  2 0.0000  8.082832 1.555541 19.155322
270  2 0.0000  8.082832 1.555541 23.531341
271  2 0.0000  6.735695 3.888853  1.651246
272  2 0.0000  6.735695 3.888853  6.027265
273  2 0.0000  6.735695 3.888853 10.403284
274  2 0.0000  6.735695 3.888853 14.779303
275  2 0.0000  6.735695 3.888853 19.155322
276  2 0.0000  6.735695 3.888853 23.531341
277  2 0.0000  5.388557 6.222165  1.651246
278  2 0.0000  5.388557 6.222165  6.027265
279  2 0.0000  5.388557 6.222165 10.403284
280  2 0.0000  5.388557 6.222165 14.779303
281  2 0.0000  5.388557 6.222165 19.155322
282  2 0.0000  5.388557 6.222165 23.531341
283  2 0.0000  4.041420 8.555477  1.651246
284  2 0.0000  4.041420 8.555477  6.027265
285  2 0.0000  4.041420 8.555477 10.403284
286  2 0.0000  4.041420 8.555477 14.779303
287  2 0.0000  4.041420 8.555477 19.155322
288  2 0.0000  4.041420 8.555477 23.531341
289  2 0.0000  1.347139 0.777771  3.839256
290  2 0.0000  1.347139 0.777771  8.215275
291  2 0.0000  1.347139 0.777771 12.591293
292  2 0.0000  1.347139 0.777771 16.967312
293  2 0.0000  1.347139 0.777771 21.343331
294  2 0.0000  1.347139 0.777771 25.719350
295  2 0.0000  0.000001 3.111083  3.839256
296  2 0.0000  0.000001 3.111083  8.215275
297  2 0.0000  0.000001 3.111083 12.591293
298  2 0.0000  0.000001 3.111083 16.967312
299  2 0.0000  0.000001 3.111083 21.343331
300  2 0.0000  0.000001 3.111083 25.719350
301  2 0.0000 -1.347136 5.444394  3.839256
302  2 0.0000 -1.347136 5.444394  8.215275
303  2 0.0000 -1.347136 5.444394 12.591293
304  2 0.0000 -1.347136 5.444394 16.967312
305  2 0.0000 -1.347136 5.444394 21.343331
306  2 0.0000 -1.347136 5.444394 25.719350
307  2 0.0000 -2.694274 7.777706  3.839256
308  2 0.0000 -2.694274 7.777706  8.215275
309  2 0.0000 -2.694274 7.777706 12.591293
310  2 0.0000 -2.694274 7.777706 16.967312
311  2 0.0000 -2.694274 7.777706 21.343331
312  2 0.0000 -2.694274 7.777706 25.719350
313  2 0.0000  4.041416 0.777771  3.839256
314  2 0.0000  4.041416 0.777771  8.215275
315  2 0.0000  4.041416 0.777771 12.591293
316  2 0.0000  4.041416 0.777771 16.967312
317  2 0.0000  4.041416 0.777771 21.343331
318  2 0.0000  4.041416 0.777771 25.719350
319  2 0.0000  2.694279 3.111083  3.839256
320  2 0.0000  2.694279 3.111083  8.215275
321  2 0.0000  2.694279 3.111083 12.591293
322  2 0.0000  2.694279 3.111083 16.967312
323  2 0.0000  2.694279 3.111083 21.343331
324  2 0.0000  2.694279 3.111083 25.719350
325  2 0.0000  1.347141 5.444394  3.839256
326  2 0.0000  1.347141 5.444394  8.215275
327  2 0.0000  1.347141 5.444394 12.591293
328  2 0.0000  1.347141 5.444394 16.967312
329  2 0.0000  1.347141 5.444394 21.343331
330  2 0.0000  1.347141 5.444394 25.719350
331  2 0.0000  0.000003 7.777706  3.839256
332  2 0.0000  0.000003 7.777706  8.215275
333  2 0.0000  0.000003 7.777706 12.591293
334  2 0.0000  0.000003 7.777706 16.967312
335  2 0.0000  0.000003 7.777706 21.343331
336  2 0.0000  0.000003 7.777706 25.719350
337  2 0.0000  6.735693 0.777771  3.839256
338  2 0.0000  6.735693 0.777771  8.215275
339  2 0.0000  6.735693 0.777771 12.591293
340  2 0.0000  6.735693 0.777771 16.967312
341  2 0.0000  6.735693 0.777771 21.343331
342  2 0.0000  6.735693 0.777771 25.719350
343  2 0.0000  5.388556 3.111083  3.839256
344  2 0.0000  5.388556 3.111083  8.215275
345  2 0.0000  5.388556 3.111083 12.591293
346  2 0.0000  5.388556 3.111083 16.967312
347  2 0.0000  5.388556 3.111083 21.343331
348  2 0.0000  5.388556 3.111083 25.719350
349  2 0.0000  4.041418 5.444394  3.839256
350  2 0.0000  4.041418 5.444394  8.215275
351  2 0.0000  4.041418 5.444394 12.591293
352  2 0.0000  4.041418 5.444394 16.967312
353  2 0.0000  4.041418 5.444394 21.343331
354  2 0.0000  4.041418 5.444394 25.719350
355  2 0.0000  2.694281 7.777706  3.839256
356  2 0.0000  2.694281 7.777706  8.215275
357  2 0.0000  2.694281 7.777706 12.591293
358  2 0.0000  2.694281 7.777706 16.967312
359  2 0.0000  2.694281 7.777706 21.343331
360  2 0.0000  2.694281 7.777706 25.719350
361  2 0.0000  9.429971 0.777771  3.839256
362  2 0.0000  9.429971 0.777771  8.215275
363  2 0.0000  9.429971 0.777771 12.591293
364  2 0.0000  9.429971 0.777771 16.967312
365  2 0.0000  9.429971 0.777771 21.343331
366  2 0.0000  9.429971 0.777771 25.719350
367  2 0.0000  8.082833 3.111083  3.839256
368  2 0.0000  8.082833 3.111083  8.215275
369  2 0.0000  8.082833 3.111083 12.591293
370  2 0.0000  8.082833 3.111083 16.967312
371  2 0.0000  8.082833 3.111083 21.343331
372  2 0.0000  8.082833 3.111083 25.719350
373  2 0.0000  6.735695 5.444394  3.839256
374  2 0.0000  6.735695 5.444394  8.215275
375  2 0.0000  6.735695 5.444394 12.591293
376  2 0.0000  6.735695 5.444394 16.967312
377  2 0.0000  6.735695 5.444394 21.343331
378  2 0.0000  6.735695 5.444394 25.719350
379  2 0.0000  5.388558 7.777706  3.839256
380  2 0.0000  5.388558 7.777706  8.215275
381  2 0.0000  5.388558 7.777706 12.591293
382  2 0.0000  5.388558 7.777706 16.967312
383  2 0.0000  5.388558 7.777706 21.343331
384  2 0.0000  5.388558 7.777706 25.719350

