Generated by pymatgen.io.lammps.data.LammpsData

64  atoms

 2  atom types

0.000000 5.388554  xlo xhi
0.000000 4.666624  ylo yhi
0.000000 17.504076  zlo zhi
-2.694275 0.000000 0.000000  xy xz yz

Masses

1   9.012182
2  15.999400

Atoms

1   1 0.0000  0.000001 1.555541  0.000701
2   1 0.0000  0.000001 1.555541  4.376720
3   1 0.0000  0.000001 1.555541  8.752739
4   1 0.0000  0.000001 1.555541 13.128758
5   1 0.0000 -1.347137 3.888853  0.000701
6   1 0.0000 -1.347137 3.888853  4.376720
7   1 0.0000 -1.347137 3.888853  8.752739
8   1 0.0000 -1.347137 3.888853 13.128758
9   1 0.0000  2.694278 1.555541  0.000701
10  1 0.0000  2.694278 1.555541  4.376720
11  1 0.0000  2.694278 1.555541  8.752739
12  1 0.0000  2.694278 1.555541 13.128758
13  1 0.0000  1.347140 3.888853  0.000701
14  1 0.0000  1.347140 3.888853  4.376720
15  1 0.0000  1.347140 3.888853  8.752739
16  1 0.0000  1.347140 3.888853 13.128758
17  1 0.0000  1.347139 0.777771  2.188710
18  1 0.0000  1.347139 0.777771  6.564729
19  1 0.0000  1.347139 0.777771 10.940748
20  1 0.0000  1.347139 0.777771 15.316767
21  1 0.0000  0.000001 3.111083  2.188710
22  1 0.0000  0.000001 3.111083  6.564729
23  1 0.0000  0.000001 3.111083 10.940748
24  1 0.0000  0.000001 3.111083 15.316767
25  1 0.0000  4.041416 0.777771  2.188710
26  1 0.0000  4.041416 0.777771  6.564729
27  1 0.0000  4.041416 0.777771 10.940748
28  1 0.0000  4.041416 0.777771 15.316767
29  1 0.0000  2.694279 3.111083  2.188710
30  1 0.0000  2.694279 3.111083  6.564729
31  1 0.0000  2.694279 3.111083 10.940748
32  1 0.0000  2.694279 3.111083 15.316767
33  2 0.0000  0.000001 1.555541  1.651246
34  2 0.0000  0.000001 1.555541  6.027265
35  2 0.0000  0.000001 1.555541 10.403284
36  2 0.0000  0.000001 1.555541 14.779303
37  2 0.0000 -1.347137 3.888853  1.651246
38  2 0.0000 -1.347137 3.888853  6.027265
39  2 0.0000 -1.347137 3.888853 10.403284
40  2 0.0000 -1.347137 3.888853 14.779303
41  2 0.0000  2.694278 1.555541  1.651246
42  2 0.0000  2.694278 1.555541  6.027265
43  2 0.0000  2.694278 1.555541 10.403284
44  2 0.0000  2.694278 1.555541 14.779303
45  2 0.0000  1.347140 3.888853  1.651246
46  2 0.0000  1.347140 3.888853  6.027265
47  2 0.0000  1.347140 3.888853 10.403284
48  2 0.0000  1.347140 3.888853 14.779303
49  2 0.0000  1.347139 0.777771  3.839256
50  2 0.0000  1.347139 0.777771  8.215275
51  2 0.0000  1.347139 0.777771 12.591293
52  2 0.0000  1.347139 0.777771 16.967312
53  2 0.0000  0.000001 3.111083  3.839256
54  2 0.0000  0.000001 3.111083  8.215275
55  2 0.0000  0.000001 3.111083 12.591293
56  2 0.0000  0.000001 3.111083 16.967312
57  2 0.0000  4.041416 0.777771  3.839256
58  2 0.0000  4.041416 0.777771  8.215275
59  2 0.0000  4.041416 0.777771 12.591293
60  2 0.0000  4.041416 0.777771 16.967312
61  2 0.0000  2.694279 3.111083  3.839256
62  2 0.0000  2.694279 3.111083  8.215275
63  2 0.0000  2.694279 3.111083 12.591293
64  2 0.0000  2.694279 3.111083 16.967312

