Generated by pymatgen.io.lammps.data.LammpsData

384  atoms

  2  atom types

0.000000 10.049712  xlo xhi
0.000000 8.703308  ylo yhi
0.000000 46.243590  zlo zhi
-5.024856 0.000000 0.000000  xy xz yz

Masses

1  10.8110
2  14.0067

Atoms

1    1 0.0000 -0.000000 1.450551  1.926816
2    1 0.0000 -0.000000 1.450551  9.634081
3    1 0.0000 -0.000000 1.450551 17.341346
4    1 0.0000 -0.000000 1.450551 25.048611
5    1 0.0000 -0.000000 1.450551 32.755876
6    1 0.0000 -0.000000 1.450551 40.463141
7    1 0.0000 -1.256214 3.626378  1.926816
8    1 0.0000 -1.256214 3.626378  9.634081
9    1 0.0000 -1.256214 3.626378 17.341346
10   1 0.0000 -1.256214 3.626378 25.048611
11   1 0.0000 -1.256214 3.626378 32.755876
12   1 0.0000 -1.256214 3.626378 40.463141
13   1 0.0000 -2.512428 5.802205  1.926816
14   1 0.0000 -2.512428 5.802205  9.634081
15   1 0.0000 -2.512428 5.802205 17.341346
16   1 0.0000 -2.512428 5.802205 25.048611
17   1 0.0000 -2.512428 5.802205 32.755876
18   1 0.0000 -2.512428 5.802205 40.463141
19   1 0.0000 -3.768642 7.978032  1.926816
20   1 0.0000 -3.768642 7.978032  9.634081
21   1 0.0000 -3.768642 7.978032 17.341346
22   1 0.0000 -3.768642 7.978032 25.048611
23   1 0.0000 -3.768642 7.978032 32.755876
24   1 0.0000 -3.768642 7.978032 40.463141
25   1 0.0000  2.512428 1.450551  1.926816
26   1 0.0000  2.512428 1.450551  9.634081
27   1 0.0000  2.512428 1.450551 17.341346
28   1 0.0000  2.512428 1.450551 25.048611
29   1 0.0000  2.512428 1.450551 32.755876
30   1 0.0000  2.512428 1.450551 40.463141
31   1 0.0000  1.256214 3.626378  1.926816
32   1 0.0000  1.256214 3.626378  9.634081
33   1 0.0000  1.256214 3.626378 17.341346
34   1 0.0000  1.256214 3.626378 25.048611
35   1 0.0000  1.256214 3.626378 32.755876
36   1 0.0000  1.256214 3.626378 40.463141
37   1 0.0000 -0.000000 5.802205  1.926816
38   1 0.0000 -0.000000 5.802205  9.634081
39   1 0.0000 -0.000000 5.802205 17.341346
40   1 0.0000 -0.000000 5.802205 25.048611
41   1 0.0000 -0.000000 5.802205 32.755876
42   1 0.0000 -0.000000 5.802205 40.463141
43   1 0.0000 -1.256214 7.978032  1.926816
44   1 0.0000 -1.256214 7.978032  9.634081
45   1 0.0000 -1.256214 7.978032 17.341346
46   1 0.0000 -1.256214 7.978032 25.048611
47   1 0.0000 -1.256214 7.978032 32.755876
48   1 0.0000 -1.256214 7.978032 40.463141
49   1 0.0000  5.024856 1.450551  1.926816
50   1 0.0000  5.024856 1.450551  9.634081
51   1 0.0000  5.024856 1.450551 17.341346
52   1 0.0000  5.024856 1.450551 25.048611
53   1 0.0000  5.024856 1.450551 32.755876
54   1 0.0000  5.024856 1.450551 40.463141
55   1 0.0000  3.768642 3.626378  1.926816
56   1 0.0000  3.768642 3.626378  9.634081
57   1 0.0000  3.768642 3.626378 17.341346
58   1 0.0000  3.768642 3.626378 25.048611
59   1 0.0000  3.768642 3.626378 32.755876
60   1 0.0000  3.768642 3.626378 40.463141
61   1 0.0000  2.512428 5.802205  1.926816
62   1 0.0000  2.512428 5.802205  9.634081
63   1 0.0000  2.512428 5.802205 17.341346
64   1 0.0000  2.512428 5.802205 25.048611
65   1 0.0000  2.512428 5.802205 32.755876
66   1 0.0000  2.512428 5.802205 40.463141
67   1 0.0000  1.256214 7.978032  1.926816
68   1 0.0000  1.256214 7.978032  9.634081
69   1 0.0000  1.256214 7.978032 17.341346
70   1 0.0000  1.256214 7.978032 25.048611
71   1 0.0000  1.256214 7.978032 32.755876
72   1 0.0000  1.256214 7.978032 40.463141
73   1 0.0000  7.537284 1.450551  1.926816
74   1 0.0000  7.537284 1.450551  9.634081
75   1 0.0000  7.537284 1.450551 17.341346
76   1 0.0000  7.537284 1.450551 25.048611
77   1 0.0000  7.537284 1.450551 32.755876
78   1 0.0000  7.537284 1.450551 40.463141
79   1 0.0000  6.281070 3.626378  1.926816
80   1 0.0000  6.281070 3.626378  9.634081
81   1 0.0000  6.281070 3.626378 17.341346
82   1 0.0000  6.281070 3.626378 25.048611
83   1 0.0000  6.281070 3.626378 32.755876
84   1 0.0000  6.281070 3.626378 40.463141
85   1 0.0000  5.024856 5.802205  1.926816
86   1 0.0000  5.024856 5.802205  9.634081
87   1 0.0000  5.024856 5.802205 17.341346
88   1 0.0000  5.024856 5.802205 25.048611
89   1 0.0000  5.024856 5.802205 32.755876
90   1 0.0000  5.024856 5.802205 40.463141
91   1 0.0000  3.768642 7.978032  1.926816
92   1 0.0000  3.768642 7.978032  9.634081
93   1 0.0000  3.768642 7.978032 17.341346
94   1 0.0000  3.768642 7.978032 25.048611
95   1 0.0000  3.768642 7.978032 32.755876
96   1 0.0000  3.768642 7.978032 40.463141
97   1 0.0000  1.256214 0.725276  5.780449
98   1 0.0000  1.256214 0.725276 13.487714
99   1 0.0000  1.256214 0.725276 21.194979
100  1 0.0000  1.256214 0.725276 28.902244
101  1 0.0000  1.256214 0.725276 36.609509
102  1 0.0000  1.256214 0.725276 44.316774
103  1 0.0000 -0.000000 2.901103  5.780449
104  1 0.0000 -0.000000 2.901103 13.487714
105  1 0.0000 -0.000000 2.901103 21.194979
106  1 0.0000 -0.000000 2.901103 28.902244
107  1 0.0000 -0.000000 2.901103 36.609509
108  1 0.0000 -0.000000 2.901103 44.316774
109  1 0.0000 -1.256214 5.076930  5.780449
110  1 0.0000 -1.256214 5.076930 13.487714
111  1 0.0000 -1.256214 5.076930 21.194979
112  1 0.0000 -1.256214 5.076930 28.902244
113  1 0.0000 -1.256214 5.076930 36.609509
114  1 0.0000 -1.256214 5.076930 44.316774
115  1 0.0000 -2.512428 7.252757  5.780449
116  1 0.0000 -2.512428 7.252757 13.487714
117  1 0.0000 -2.512428 7.252757 21.194979
118  1 0.0000 -2.512428 7.252757 28.902244
119  1 0.0000 -2.512428 7.252757 36.609509
120  1 0.0000 -2.512428 7.252757 44.316774
121  1 0.0000  3.768642 0.725276  5.780449
122  1 0.0000  3.768642 0.725276 13.487714
123  1 0.0000  3.768642 0.725276 21.194979
124  1 0.0000  3.768642 0.725276 28.902244
125  1 0.0000  3.768642 0.725276 36.609509
126  1 0.0000  3.768642 0.725276 44.316774
127  1 0.0000  2.512428 2.901103  5.780449
128  1 0.0000  2.512428 2.901103 13.487714
129  1 0.0000  2.512428 2.901103 21.194979
130  1 0.0000  2.512428 2.901103 28.902244
131  1 0.0000  2.512428 2.901103 36.609509
132  1 0.0000  2.512428 2.901103 44.316774
133  1 0.0000  1.256214 5.076930  5.780449
134  1 0.0000  1.256214 5.076930 13.487714
135  1 0.0000  1.256214 5.076930 21.194979
136  1 0.0000  1.256214 5.076930 28.902244
137  1 0.0000  1.256214 5.076930 36.609509
138  1 0.0000  1.256214 5.076930 44.316774
139  1 0.0000 -0.000000 7.252757  5.780449
140  1 0.0000 -0.000000 7.252757 13.487714
141  1 0.0000 -0.000000 7.252757 21.194979
142  1 0.0000 -0.000000 7.252757 28.902244
143  1 0.0000 -0.000000 7.252757 36.609509
144  1 0.0000 -0.000000 7.252757 44.316774
145  1 0.0000  6.281070 0.725276  5.780449
146  1 0.0000  6.281070 0.725276 13.487714
147  1 0.0000  6.281070 0.725276 21.194979
148  1 0.0000  6.281070 0.725276 28.902244
149  1 0.0000  6.281070 0.725276 36.609509
150  1 0.0000  6.281070 0.725276 44.316774
151  1 0.0000  5.024856 2.901103  5.780449
152  1 0.0000  5.024856 2.901103 13.487714
153  1 0.0000  5.024856 2.901103 21.194979
154  1 0.0000  5.024856 2.901103 28.902244
155  1 0.0000  5.024856 2.901103 36.609509
156  1 0.0000  5.024856 2.901103 44.316774
157  1 0.0000  3.768642 5.076930  5.780449
158  1 0.0000  3.768642 5.076930 13.487714
159  1 0.0000  3.768642 5.076930 21.194979
160  1 0.0000  3.768642 5.076930 28.902244
161  1 0.0000  3.768642 5.076930 36.609509
162  1 0.0000  3.768642 5.076930 44.316774
163  1 0.0000  2.512428 7.252757  5.780449
164  1 0.0000  2.512428 7.252757 13.487714
165  1 0.0000  2.512428 7.252757 21.194979
166  1 0.0000  2.512428 7.252757 28.902244
167  1 0.0000  2.512428 7.252757 36.609509
168  1 0.0000  2.512428 7.252757 44.316774
169  1 0.0000  8.793498 0.725276  5.780449
170  1 0.0000  8.793498 0.725276 13.487714
171  1 0.0000  8.793498 0.725276 21.194979
172  1 0.0000  8.793498 0.725276 28.902244
173  1 0.0000  8.793498 0.725276 36.609509
174  1 0.0000  8.793498 0.725276 44.316774
175  1 0.0000  7.537284 2.901103  5.780449
176  1 0.0000  7.537284 2.901103 13.487714
177  1 0.0000  7.537284 2.901103 21.194979
178  1 0.0000  7.537284 2.901103 28.902244
179  1 0.0000  7.537284 2.901103 36.609509
180  1 0.0000  7.537284 2.901103 44.316774
181  1 0.0000  6.281070 5.076930  5.780449
182  1 0.0000  6.281070 5.076930 13.487714
183  1 0.0000  6.281070 5.076930 21.194979
184  1 0.0000  6.281070 5.076930 28.902244
185  1 0.0000  6.281070 5.076930 36.609509
186  1 0.0000  6.281070 5.076930 44.316774
187  1 0.0000  5.024856 7.252757  5.780449
188  1 0.0000  5.024856 7.252757 13.487714
189  1 0.0000  5.024856 7.252757 21.194979
190  1 0.0000  5.024856 7.252757 28.902244
191  1 0.0000  5.024856 7.252757 36.609509
192  1 0.0000  5.024856 7.252757 44.316774
193  2 0.0000 -0.000000 1.450551  5.780449
194  2 0.0000 -0.000000 1.450551 13.487714
195  2 0.0000 -0.000000 1.450551 21.194979
196  2 0.0000 -0.000000 1.450551 28.902244
197  2 0.0000 -0.000000 1.450551 36.609509
198  2 0.0000 -0.000000 1.450551 44.316774
199  2 0.0000 -1.256214 3.626378  5.780449
200  2 0.0000 -1.256214 3.626378 13.487714
201  2 0.0000 -1.256214 3.626378 21.194979
202  2 0.0000 -1.256214 3.626378 28.902244
203  2 0.0000 -1.256214 3.626378 36.609509
204  2 0.0000 -1.256214 3.626378 44.316774
205  2 0.0000 -2.512428 5.802205  5.780449
206  2 0.0000 -2.512428 5.802205 13.487714
207  2 0.0000 -2.512428 5.802205 21.194979
208  2 0.0000 -2.512428 5.802205 28.902244
209  2 0.0000 -2.512428 5.802205 36.609509
210  2 0.0000 -2.512428 5.802205 44.316774
211  2 0.0000 -3.768642 7.978032  5.780449
212  2 0.0000 -3.768642 7.978032 13.487714
213  2 0.0000 -3.768642 7.978032 21.194979
214  2 0.0000 -3.768642 7.978032 28.902244
215  2 0.0000 -3.768642 7.978032 36.609509
216  2 0.0000 -3.768642 7.978032 44.316774
217  2 0.0000  2.512428 1.450551  5.780449
218  2 0.0000  2.512428 1.450551 13.487714
219  2 0.0000  2.512428 1.450551 21.194979
220  2 0.0000  2.512428 1.450551 28.902244
221  2 0.0000  2.512428 1.450551 36.609509
222  2 0.0000  2.512428 1.450551 44.316774
223  2 0.0000  1.256214 3.626378  5.780449
224  2 0.0000  1.256214 3.626378 13.487714
225  2 0.0000  1.256214 3.626378 21.194979
226  2 0.0000  1.256214 3.626378 28.902244
227  2 0.0000  1.256214 3.626378 36.609509
228  2 0.0000  1.256214 3.626378 44.316774
229  2 0.0000 -0.000000 5.802205  5.780449
230  2 0.0000 -0.000000 5.802205 13.487714
231  2 0.0000 -0.000000 5.802205 21.194979
232  2 0.0000 -0.000000 5.802205 28.902244
233  2 0.0000 -0.000000 5.802205 36.609509
234  2 0.0000 -0.000000 5.802205 44.316774
235  2 0.0000 -1.256214 7.978032  5.780449
236  2 0.0000 -1.256214 7.978032 13.487714
237  2 0.0000 -1.256214 7.978032 21.194979
238  2 0.0000 -1.256214 7.978032 28.902244
239  2 0.0000 -1.256214 7.978032 36.609509
240  2 0.0000 -1.256214 7.978032 44.316774
241  2 0.0000  5.024856 1.450551  5.780449
242  2 0.0000  5.024856 1.450551 13.487714
243  2 0.0000  5.024856 1.450551 21.194979
244  2 0.0000  5.024856 1.450551 28.902244
245  2 0.0000  5.024856 1.450551 36.609509
246  2 0.0000  5.024856 1.450551 44.316774
247  2 0.0000  3.768642 3.626378  5.780449
248  2 0.0000  3.768642 3.626378 13.487714
249  2 0.0000  3.768642 3.626378 21.194979
250  2 0.0000  3.768642 3.626378 28.902244
251  2 0.0000  3.768642 3.626378 36.609509
252  2 0.0000  3.768642 3.626378 44.316774
253  2 0.0000  2.512428 5.802205  5.780449
254  2 0.0000  2.512428 5.802205 13.487714
255  2 0.0000  2.512428 5.802205 21.194979
256  2 0.0000  2.512428 5.802205 28.902244
257  2 0.0000  2.512428 5.802205 36.609509
258  2 0.0000  2.512428 5.802205 44.316774
259  2 0.0000  1.256214 7.978032  5.780449
260  2 0.0000  1.256214 7.978032 13.487714
261  2 0.0000  1.256214 7.978032 21.194979
262  2 0.0000  1.256214 7.978032 28.902244
263  2 0.0000  1.256214 7.978032 36.609509
264  2 0.0000  1.256214 7.978032 44.316774
265  2 0.0000  7.537284 1.450551  5.780449
266  2 0.0000  7.537284 1.450551 13.487714
267  2 0.0000  7.537284 1.450551 21.194979
268  2 0.0000  7.537284 1.450551 28.902244
269  2 0.0000  7.537284 1.450551 36.609509
270  2 0.0000  7.537284 1.450551 44.316774
271  2 0.0000  6.281070 3.626378  5.780449
272  2 0.0000  6.281070 3.626378 13.487714
273  2 0.0000  6.281070 3.626378 21.194979
274  2 0.0000  6.281070 3.626378 28.902244
275  2 0.0000  6.281070 3.626378 36.609509
276  2 0.0000  6.281070 3.626378 44.316774
277  2 0.0000  5.024856 5.802205  5.780449
278  2 0.0000  5.024856 5.802205 13.487714
279  2 0.0000  5.024856 5.802205 21.194979
280  2 0.0000  5.024856 5.802205 28.902244
281  2 0.0000  5.024856 5.802205 36.609509
282  2 0.0000  5.024856 5.802205 44.316774
283  2 0.0000  3.768642 7.978032  5.780449
284  2 0.0000  3.768642 7.978032 13.487714
285  2 0.0000  3.768642 7.978032 21.194979
286  2 0.0000  3.768642 7.978032 28.902244
287  2 0.0000  3.768642 7.978032 36.609509
288  2 0.0000  3.768642 7.978032 44.316774
289  2 0.0000  1.256214 0.725276  1.926816
290  2 0.0000  1.256214 0.725276  9.634081
291  2 0.0000  1.256214 0.725276 17.341346
292  2 0.0000  1.256214 0.725276 25.048611
293  2 0.0000  1.256214 0.725276 32.755876
294  2 0.0000  1.256214 0.725276 40.463141
295  2 0.0000 -0.000000 2.901103  1.926816
296  2 0.0000 -0.000000 2.901103  9.634081
297  2 0.0000 -0.000000 2.901103 17.341346
298  2 0.0000 -0.000000 2.901103 25.048611
299  2 0.0000 -0.000000 2.901103 32.755876
300  2 0.0000 -0.000000 2.901103 40.463141
301  2 0.0000 -1.256214 5.076930  1.926816
302  2 0.0000 -1.256214 5.076930  9.634081
303  2 0.0000 -1.256214 5.076930 17.341346
304  2 0.0000 -1.256214 5.076930 25.048611
305  2 0.0000 -1.256214 5.076930 32.755876
306  2 0.0000 -1.256214 5.076930 40.463141
307  2 0.0000 -2.512428 7.252757  1.926816
308  2 0.0000 -2.512428 7.252757  9.634081
309  2 0.0000 -2.512428 7.252757 17.341346
310  2 0.0000 -2.512428 7.252757 25.048611
311  2 0.0000 -2.512428 7.252757 32.755876
312  2 0.0000 -2.512428 7.252757 40.463141
313  2 0.0000  3.768642 0.725276  1.926816
314  2 0.0000  3.768642 0.725276  9.634081
315  2 0.0000  3.768642 0.725276 17.341346
316  2 0.0000  3.768642 0.725276 25.048611
317  2 0.0000  3.768642 0.725276 32.755876
318  2 0.0000  3.768642 0.725276 40.463141
319  2 0.0000  2.512428 2.901103  1.926816
320  2 0.0000  2.512428 2.901103  9.634081
321  2 0.0000  2.512428 2.901103 17.341346
322  2 0.0000  2.512428 2.901103 25.048611
323  2 0.0000  2.512428 2.901103 32.755876
324  2 0.0000  2.512428 2.901103 40.463141
325  2 0.0000  1.256214 5.076930  1.926816
326  2 0.0000  1.256214 5.076930  9.634081
327  2 0.0000  1.256214 5.076930 17.341346
328  2 0.0000  1.256214 5.076930 25.048611
329  2 0.0000  1.256214 5.076930 32.755876
330  2 0.0000  1.256214 5.076930 40.463141
331  2 0.0000 -0.000000 7.252757  1.926816
332  2 0.0000 -0.000000 7.252757  9.634081
333  2 0.0000 -0.000000 7.252757 17.341346
334  2 0.0000 -0.000000 7.252757 25.048611
335  2 0.0000 -0.000000 7.252757 32.755876
336  2 0.0000 -0.000000 7.252757 40.463141
337  2 0.0000  6.281070 0.725276  1.926816
338  2 0.0000  6.281070 0.725276  9.634081
339  2 0.0000  6.281070 0.725276 17.341346
340  2 0.0000  6.281070 0.725276 25.048611
341  2 0.0000  6.281070 0.725276 32.755876
342  2 0.0000  6.281070 0.725276 40.463141
343  2 0.0000  5.024856 2.901103  1.926816
344  2 0.0000  5.024856 2.901103  9.634081
345  2 0.0000  5.024856 2.901103 17.341346
346  2 0.0000  5.024856 2.901103 25.048611
347  2 0.0000  5.024856 2.901103 32.755876
348  2 0.0000  5.024856 2.901103 40.463141
349  2 0.0000  3.768642 5.076930  1.926816
350  2 0.0000  3.768642 5.076930  9.634081
351  2 0.0000  3.768642 5.076930 17.341346
352  2 0.0000  3.768642 5.076930 25.048611
353  2 0.0000  3.768642 5.076930 32.755876
354  2 0.0000  3.768642 5.076930 40.463141
355  2 0.0000  2.512428 7.252757  1.926816
356  2 0.0000  2.512428 7.252757  9.634081
357  2 0.0000  2.512428 7.252757 17.341346
358  2 0.0000  2.512428 7.252757 25.048611
359  2 0.0000  2.512428 7.252757 32.755876
360  2 0.0000  2.512428 7.252757 40.463141
361  2 0.0000  8.793498 0.725276  1.926816
362  2 0.0000  8.793498 0.725276  9.634081
363  2 0.0000  8.793498 0.725276 17.341346
364  2 0.0000  8.793498 0.725276 25.048611
365  2 0.0000  8.793498 0.725276 32.755876
366  2 0.0000  8.793498 0.725276 40.463141
367  2 0.0000  7.537284 2.901103  1.926816
368  2 0.0000  7.537284 2.901103  9.634081
369  2 0.0000  7.537284 2.901103 17.341346
370  2 0.0000  7.537284 2.901103 25.048611
371  2 0.0000  7.537284 2.901103 32.755876
372  2 0.0000  7.537284 2.901103 40.463141
373  2 0.0000  6.281070 5.076930  1.926816
374  2 0.0000  6.281070 5.076930  9.634081
375  2 0.0000  6.281070 5.076930 17.341346
376  2 0.0000  6.281070 5.076930 25.048611
377  2 0.0000  6.281070 5.076930 32.755876
378  2 0.0000  6.281070 5.076930 40.463141
379  2 0.0000  5.024856 7.252757  1.926816
380  2 0.0000  5.024856 7.252757  9.634081
381  2 0.0000  5.024856 7.252757 17.341346
382  2 0.0000  5.024856 7.252757 25.048611
383  2 0.0000  5.024856 7.252757 32.755876
384  2 0.0000  5.024856 7.252757 40.463141

