Generated by pymatgen.io.lammps.data.LammpsData

64  atoms

 2  atom types

0.000000 5.024856  xlo xhi
0.000000 4.351654  ylo yhi
0.000000 30.829060  zlo zhi
-2.512428 0.000000 0.000000  xy xz yz

Masses

1  10.8110
2  14.0067

Atoms

1   1 0.0000 -0.000000 1.450551  1.926816
2   1 0.0000 -0.000000 1.450551  9.634081
3   1 0.0000 -0.000000 1.450551 17.341346
4   1 0.0000 -0.000000 1.450551 25.048611
5   1 0.0000 -1.256214 3.626378  1.926816
6   1 0.0000 -1.256214 3.626378  9.634081
7   1 0.0000 -1.256214 3.626378 17.341346
8   1 0.0000 -1.256214 3.626378 25.048611
9   1 0.0000  2.512428 1.450551  1.926816
10  1 0.0000  2.512428 1.450551  9.634081
11  1 0.0000  2.512428 1.450551 17.341346
12  1 0.0000  2.512428 1.450551 25.048611
13  1 0.0000  1.256214 3.626378  1.926816
14  1 0.0000  1.256214 3.626378  9.634081
15  1 0.0000  1.256214 3.626378 17.341346
16  1 0.0000  1.256214 3.626378 25.048611
17  1 0.0000  1.256214 0.725276  5.780449
18  1 0.0000  1.256214 0.725276 13.487714
19  1 0.0000  1.256214 0.725276 21.194979
20  1 0.0000  1.256214 0.725276 28.902244
21  1 0.0000 -0.000000 2.901103  5.780449
22  1 0.0000 -0.000000 2.901103 13.487714
23  1 0.0000 -0.000000 2.901103 21.194979
24  1 0.0000 -0.000000 2.901103 28.902244
25  1 0.0000  3.768642 0.725276  5.780449
26  1 0.0000  3.768642 0.725276 13.487714
27  1 0.0000  3.768642 0.725276 21.194979
28  1 0.0000  3.768642 0.725276 28.902244
29  1 0.0000  2.512428 2.901103  5.780449
30  1 0.0000  2.512428 2.901103 13.487714
31  1 0.0000  2.512428 2.901103 21.194979
32  1 0.0000  2.512428 2.901103 28.902244
33  2 0.0000 -0.000000 1.450551  5.780449
34  2 0.0000 -0.000000 1.450551 13.487714
35  2 0.0000 -0.000000 1.450551 21.194979
36  2 0.0000 -0.000000 1.450551 28.902244
37  2 0.0000 -1.256214 3.626378  5.780449
38  2 0.0000 -1.256214 3.626378 13.487714
39  2 0.0000 -1.256214 3.626378 21.194979
40  2 0.0000 -1.256214 3.626378 28.902244
41  2 0.0000  2.512428 1.450551  5.780449
42  2 0.0000  2.512428 1.450551 13.487714
43  2 0.0000  2.512428 1.450551 21.194979
44  2 0.0000  2.512428 1.450551 28.902244
45  2 0.0000  1.256214 3.626378  5.780449
46  2 0.0000  1.256214 3.626378 13.487714
47  2 0.0000  1.256214 3.626378 21.194979
48  2 0.0000  1.256214 3.626378 28.902244
49  2 0.0000  1.256214 0.725276  1.926816
50  2 0.0000  1.256214 0.725276  9.634081
51  2 0.0000  1.256214 0.725276 17.341346
52  2 0.0000  1.256214 0.725276 25.048611
53  2 0.0000 -0.000000 2.901103  1.926816
54  2 0.0000 -0.000000 2.901103  9.634081
55  2 0.0000 -0.000000 2.901103 17.341346
56  2 0.0000 -0.000000 2.901103 25.048611
57  2 0.0000  3.768642 0.725276  1.926816
58  2 0.0000  3.768642 0.725276  9.634081
59  2 0.0000  3.768642 0.725276 17.341346
60  2 0.0000  3.768642 0.725276 25.048611
61  2 0.0000  2.512428 2.901103  1.926816
62  2 0.0000  2.512428 2.901103  9.634081
63  2 0.0000  2.512428 2.901103 17.341346
64  2 0.0000  2.512428 2.901103 25.048611

