Generated by pymatgen.io.lammps.data.LammpsData

960  atoms

  3  atom types

0.000000 25.433791  xlo xhi
0.000000 18.409681  ylo yhi
0.000000 25.208132  zlo zhi
17.548825 26.323228 11.274387  xy xz yz

Masses

1  40.0780
2  12.0107
3  15.9994

Atoms

1    1 0.0000  7.566429  3.240742  2.100678
2    1 0.0000 11.953634  5.119807  6.302033
3    1 0.0000 16.340839  6.998871 10.503388
4    1 0.0000 20.728043  8.877936 14.704744
5    1 0.0000 25.115248 10.757000 18.906099
6    1 0.0000 29.502453 12.636065 23.107454
7    1 0.0000 11.953636  7.843163  2.100678
8    1 0.0000 16.340840  9.722227  6.302033
9    1 0.0000 20.728045 11.601291 10.503388
10   1 0.0000 25.115250 13.480356 14.704744
11   1 0.0000 29.502454 15.359420 18.906099
12   1 0.0000 33.889659 17.238485 23.107454
13   1 0.0000 16.340842 12.445583  2.100678
14   1 0.0000 20.728047 14.324647  6.302033
15   1 0.0000 25.115251 16.203712 10.503388
16   1 0.0000 29.502456 18.082776 14.704744
17   1 0.0000 33.889661 19.961841 18.906099
18   1 0.0000 38.276865 21.840905 23.107454
19   1 0.0000 20.728048 17.048003  2.100678
20   1 0.0000 25.115253 18.927067  6.302033
21   1 0.0000 29.502458 20.806132 10.503388
22   1 0.0000 33.889662 22.685196 14.704744
23   1 0.0000 38.276867 24.564261 18.906099
24   1 0.0000 42.664072 26.443325 23.107454
25   1 0.0000 13.924877  3.240742  2.100678
26   1 0.0000 18.312082  5.119807  6.302033
27   1 0.0000 22.699287  6.998871 10.503388
28   1 0.0000 27.086491  8.877936 14.704744
29   1 0.0000 31.473696 10.757000 18.906099
30   1 0.0000 35.860900 12.636065 23.107454
31   1 0.0000 18.312084  7.843163  2.100678
32   1 0.0000 22.699288  9.722227  6.302033
33   1 0.0000 27.086493 11.601291 10.503388
34   1 0.0000 31.473698 13.480356 14.704744
35   1 0.0000 35.860902 15.359420 18.906099
36   1 0.0000 40.248107 17.238485 23.107454
37   1 0.0000 22.699290 12.445583  2.100678
38   1 0.0000 27.086495 14.324647  6.302033
39   1 0.0000 31.473699 16.203712 10.503388
40   1 0.0000 35.860904 18.082776 14.704744
41   1 0.0000 40.248109 19.961841 18.906099
42   1 0.0000 44.635313 21.840905 23.107454
43   1 0.0000 27.086496 17.048003  2.100678
44   1 0.0000 31.473701 18.927067  6.302033
45   1 0.0000 35.860906 20.806132 10.503388
46   1 0.0000 40.248110 22.685196 14.704744
47   1 0.0000 44.635315 24.564261 18.906099
48   1 0.0000 49.022520 26.443325 23.107454
49   1 0.0000 20.283325  3.240742  2.100678
50   1 0.0000 24.670530  5.119807  6.302033
51   1 0.0000 29.057734  6.998871 10.503388
52   1 0.0000 33.444939  8.877936 14.704744
53   1 0.0000 37.832144 10.757000 18.906099
54   1 0.0000 42.219348 12.636065 23.107454
55   1 0.0000 24.670531  7.843163  2.100678
56   1 0.0000 29.057736  9.722227  6.302033
57   1 0.0000 33.444941 11.601291 10.503388
58   1 0.0000 37.832145 13.480356 14.704744
59   1 0.0000 42.219350 15.359420 18.906099
60   1 0.0000 46.606555 17.238485 23.107454
61   1 0.0000 29.057738 12.445583  2.100678
62   1 0.0000 33.444942 14.324647  6.302033
63   1 0.0000 37.832147 16.203712 10.503388
64   1 0.0000 42.219352 18.082776 14.704744
65   1 0.0000 46.606556 19.961841 18.906099
66   1 0.0000 50.993761 21.840905 23.107454
67   1 0.0000 33.444944 17.048003  2.100678
68   1 0.0000 37.832149 18.927067  6.302033
69   1 0.0000 42.219353 20.806132 10.503388
70   1 0.0000 46.606558 22.685196 14.704744
71   1 0.0000 50.993763 24.564261 18.906099
72   1 0.0000 55.380967 26.443325 23.107454
73   1 0.0000 26.641773  3.240742  2.100678
74   1 0.0000 31.028978  5.119807  6.302033
75   1 0.0000 35.416182  6.998871 10.503388
76   1 0.0000 39.803387  8.877936 14.704744
77   1 0.0000 44.190591 10.757000 18.906099
78   1 0.0000 48.577796 12.636065 23.107454
79   1 0.0000 31.028979  7.843163  2.100678
80   1 0.0000 35.416184  9.722227  6.302033
81   1 0.0000 39.803389 11.601291 10.503388
82   1 0.0000 44.190593 13.480356 14.704744
83   1 0.0000 48.577798 15.359420 18.906099
84   1 0.0000 52.965002 17.238485 23.107454
85   1 0.0000 35.416186 12.445583  2.100678
86   1 0.0000 39.803390 14.324647  6.302033
87   1 0.0000 44.190595 16.203712 10.503388
88   1 0.0000 48.577800 18.082776 14.704744
89   1 0.0000 52.965004 19.961841 18.906099
90   1 0.0000 57.352209 21.840905 23.107454
91   1 0.0000 39.803392 17.048003  2.100678
92   1 0.0000 44.190597 18.927067  6.302033
93   1 0.0000 48.577801 20.806132 10.503388
94   1 0.0000 52.965006 22.685196 14.704744
95   1 0.0000 57.352211 24.564261 18.906099
96   1 0.0000 61.739415 26.443325 23.107454
97   1 0.0000  0.000000  0.000000  0.000000
98   1 0.0000  4.387205  1.879064  4.201355
99   1 0.0000  8.774409  3.758129  8.402711
100  1 0.0000 13.161614  5.637193 12.604066
101  1 0.0000 17.548819  7.516258 16.805421
102  1 0.0000 21.936023  9.395322 21.006777
103  1 0.0000  4.387206  4.602420  0.000000
104  1 0.0000  8.774411  6.481485  4.201355
105  1 0.0000 13.161616  8.360549  8.402711
106  1 0.0000 17.548820 10.239614 12.604066
107  1 0.0000 21.936025 12.118678 16.805421
108  1 0.0000 26.323230 13.997742 21.006777
109  1 0.0000  8.774413  9.204840  0.000000
110  1 0.0000 13.161617 11.083905  4.201355
111  1 0.0000 17.548822 12.962969  8.402711
112  1 0.0000 21.936027 14.842034 12.604066
113  1 0.0000 26.323231 16.721098 16.805421
114  1 0.0000 30.710436 18.600163 21.006777
115  1 0.0000 13.161619 13.807261 -0.000000
116  1 0.0000 17.548824 15.686325  4.201355
117  1 0.0000 21.936028 17.565390  8.402711
118  1 0.0000 26.323233 19.444454 12.604066
119  1 0.0000 30.710438 21.323518 16.805421
120  1 0.0000 35.097642 23.202583 21.006777
121  1 0.0000  6.358448 -0.000000 -0.000000
122  1 0.0000 10.745652  1.879064  4.201355
123  1 0.0000 15.132857  3.758129  8.402711
124  1 0.0000 19.520062  5.637193 12.604066
125  1 0.0000 23.907266  7.516258 16.805421
126  1 0.0000 28.294471  9.395322 21.006777
127  1 0.0000 10.745654  4.602420 -0.000000
128  1 0.0000 15.132859  6.481485  4.201355
129  1 0.0000 19.520063  8.360549  8.402711
130  1 0.0000 23.907268 10.239614 12.604066
131  1 0.0000 28.294473 12.118678 16.805421
132  1 0.0000 32.681677 13.997742 21.006777
133  1 0.0000 15.132861  9.204840 -0.000000
134  1 0.0000 19.520065 11.083905  4.201355
135  1 0.0000 23.907270 12.962969  8.402711
136  1 0.0000 28.294474 14.842034 12.604066
137  1 0.0000 32.681679 16.721098 16.805421
138  1 0.0000 37.068884 18.600163 21.006777
139  1 0.0000 19.520067 13.807261 -0.000000
140  1 0.0000 23.907272 15.686325  4.201355
141  1 0.0000 28.294476 17.565390  8.402711
142  1 0.0000 32.681681 19.444454 12.604066
143  1 0.0000 37.068885 21.323518 16.805421
144  1 0.0000 41.456090 23.202583 21.006777
145  1 0.0000 12.716896 -0.000000 -0.000000
146  1 0.0000 17.104100  1.879064  4.201355
147  1 0.0000 21.491305  3.758129  8.402711
148  1 0.0000 25.878510  5.637193 12.604066
149  1 0.0000 30.265714  7.516258 16.805421
150  1 0.0000 34.652919  9.395322 21.006777
151  1 0.0000 17.104102  4.602420 -0.000000
152  1 0.0000 21.491307  6.481485  4.201355
153  1 0.0000 25.878511  8.360549  8.402711
154  1 0.0000 30.265716 10.239614 12.604066
155  1 0.0000 34.652921 12.118678 16.805421
156  1 0.0000 39.040125 13.997742 21.006777
157  1 0.0000 21.491308  9.204840 -0.000000
158  1 0.0000 25.878513 11.083905  4.201355
159  1 0.0000 30.265718 12.962969  8.402711
160  1 0.0000 34.652922 14.842034 12.604066
161  1 0.0000 39.040127 16.721098 16.805421
162  1 0.0000 43.427332 18.600163 21.006777
163  1 0.0000 25.878515 13.807261 -0.000000
164  1 0.0000 30.265719 15.686325  4.201355
165  1 0.0000 34.652924 17.565390  8.402711
166  1 0.0000 39.040129 19.444454 12.604066
167  1 0.0000 43.427333 21.323518 16.805421
168  1 0.0000 47.814538 23.202583 21.006777
169  1 0.0000 19.075343 -0.000000 -0.000000
170  1 0.0000 23.462548  1.879064  4.201355
171  1 0.0000 27.849753  3.758129  8.402711
172  1 0.0000 32.236957  5.637193 12.604066
173  1 0.0000 36.624162  7.516258 16.805421
174  1 0.0000 41.011367  9.395322 21.006777
175  1 0.0000 49.785778 15.876807 25.208132
176  1 0.0000 27.849754  6.481485  4.201355
177  1 0.0000 32.236959  8.360549  8.402711
178  1 0.0000 36.624164 10.239614 12.604066
179  1 0.0000 41.011368 12.118678 16.805421
180  1 0.0000 45.398573 13.997742 21.006777
181  1 0.0000 27.849756  9.204840  0.000000
182  1 0.0000 32.236961 11.083905  4.201355
183  1 0.0000 36.624165 12.962969  8.402711
184  1 0.0000 41.011370 14.842034 12.604066
185  1 0.0000 45.398575 16.721098 16.805421
186  1 0.0000 49.785779 18.600163 21.006777
187  1 0.0000 32.236963 13.807261 -0.000000
188  1 0.0000 36.624167 15.686325  4.201355
189  1 0.0000 41.011372 17.565390  8.402711
190  1 0.0000 45.398576 19.444454 12.604066
191  1 0.0000 49.785781 21.323518 16.805421
192  1 0.0000 54.172986 23.202583 21.006777
193  2 0.0000 11.349644  4.861113  3.151016
194  2 0.0000 15.736849  6.740178  7.352372
195  2 0.0000 20.124053  8.619242 11.553727
196  2 0.0000 24.511258 10.498307 15.755082
197  2 0.0000 28.898463 12.377371 19.956438
198  2 0.0000 33.285667 14.256436 24.157793
199  2 0.0000 15.736850  9.463534  3.151016
200  2 0.0000 20.124055 11.342598  7.352372
201  2 0.0000 24.511260 13.221663 11.553727
202  2 0.0000 28.898464 15.100727 15.755082
203  2 0.0000 33.285669 16.979791 19.956438
204  2 0.0000 37.672874 18.858856 24.157793
205  2 0.0000 20.124057 14.065954  3.151016
206  2 0.0000 24.511261 15.945018  7.352372
207  2 0.0000 28.898466 17.824083 11.553727
208  2 0.0000 33.285671 19.703147 15.755082
209  2 0.0000 37.672875 21.582212 19.956438
210  2 0.0000 42.060080 23.461276 24.157793
211  2 0.0000 24.511263 18.668374  3.151016
212  2 0.0000 28.898468 20.547439  7.352372
213  2 0.0000 33.285672 22.426503 11.553727
214  2 0.0000 37.672877 24.305567 15.755082
215  2 0.0000 42.060082 26.184632 19.956438
216  2 0.0000 46.447286 28.063696 24.157793
217  2 0.0000 17.708092  4.861113  3.151016
218  2 0.0000 22.095297  6.740178  7.352372
219  2 0.0000 26.482501  8.619242 11.553727
220  2 0.0000 30.869706 10.498307 15.755082
221  2 0.0000 35.256911 12.377371 19.956438
222  2 0.0000 39.644115 14.256436 24.157793
223  2 0.0000 22.095298  9.463534  3.151016
224  2 0.0000 26.482503 11.342598  7.352372
225  2 0.0000 30.869708 13.221663 11.553727
226  2 0.0000 35.256912 15.100727 15.755082
227  2 0.0000 39.644117 16.979791 19.956438
228  2 0.0000 44.031322 18.858856 24.157793
229  2 0.0000 26.482505 14.065954  3.151016
230  2 0.0000 30.869709 15.945018  7.352372
231  2 0.0000 35.256914 17.824083 11.553727
232  2 0.0000 39.644119 19.703147 15.755082
233  2 0.0000 44.031323 21.582212 19.956438
234  2 0.0000 48.418528 23.461276 24.157793
235  2 0.0000 30.869711 18.668374  3.151016
236  2 0.0000 35.256916 20.547439  7.352372
237  2 0.0000 39.644120 22.426503 11.553727
238  2 0.0000 44.031325 24.305567 15.755082
239  2 0.0000 48.418530 26.184632 19.956438
240  2 0.0000 52.805734 28.063696 24.157793
241  2 0.0000 24.066540  4.861113  3.151016
242  2 0.0000 28.453744  6.740178  7.352372
243  2 0.0000 32.840949  8.619242 11.553727
244  2 0.0000 37.228154 10.498307 15.755082
245  2 0.0000 41.615358 12.377371 19.956438
246  2 0.0000 46.002563 14.256436 24.157793
247  2 0.0000 28.453746  9.463534  3.151016
248  2 0.0000 32.840951 11.342598  7.352372
249  2 0.0000 37.228155 13.221663 11.553727
250  2 0.0000 41.615360 15.100727 15.755082
251  2 0.0000 46.002565 16.979791 19.956438
252  2 0.0000 50.389769 18.858856 24.157793
253  2 0.0000 32.840952 14.065954  3.151016
254  2 0.0000 37.228157 15.945018  7.352372
255  2 0.0000 41.615362 17.824083 11.553727
256  2 0.0000 46.002566 19.703147 15.755082
257  2 0.0000 50.389771 21.582212 19.956438
258  2 0.0000 54.776976 23.461276 24.157793
259  2 0.0000 37.228159 18.668374  3.151016
260  2 0.0000 41.615363 20.547439  7.352372
261  2 0.0000 46.002568 22.426503 11.553727
262  2 0.0000 50.389773 24.305567 15.755082
263  2 0.0000 54.776977 26.184632 19.956438
264  2 0.0000 59.164182 28.063696 24.157793
265  2 0.0000 30.424988  4.861113  3.151016
266  2 0.0000 34.812192  6.740178  7.352372
267  2 0.0000 39.199397  8.619242 11.553727
268  2 0.0000 43.586602 10.498307 15.755082
269  2 0.0000 47.973806 12.377371 19.956438
270  2 0.0000 52.361011 14.256436 24.157793
271  2 0.0000 34.812194  9.463534  3.151016
272  2 0.0000 39.199399 11.342598  7.352372
273  2 0.0000 43.586603 13.221663 11.553727
274  2 0.0000 47.973808 15.100727 15.755082
275  2 0.0000 52.361013 16.979791 19.956438
276  2 0.0000 56.748217 18.858856 24.157793
277  2 0.0000 39.199400 14.065954  3.151016
278  2 0.0000 43.586605 15.945018  7.352372
279  2 0.0000 47.973810 17.824083 11.553727
280  2 0.0000 52.361014 19.703147 15.755082
281  2 0.0000 56.748219 21.582212 19.956438
282  2 0.0000 61.135424 23.461276 24.157793
283  2 0.0000 43.586607 18.668374  3.151016
284  2 0.0000 47.973811 20.547439  7.352372
285  2 0.0000 52.361016 22.426503 11.553727
286  2 0.0000 56.748221 24.305567 15.755082
287  2 0.0000 61.135425 26.184632 19.956438
288  2 0.0000 65.522630 28.063696 24.157793
289  2 0.0000  3.783215  1.620371  1.050339
290  2 0.0000  8.170419  3.499436  5.251694
291  2 0.0000 12.557624  5.378500  9.453049
292  2 0.0000 16.944829  7.257564 13.654405
293  2 0.0000 21.332033  9.136629 17.855760
294  2 0.0000 25.719238 11.015693 22.057115
295  2 0.0000  8.170421  6.222791  1.050339
296  2 0.0000 12.557626  8.101856  5.251694
297  2 0.0000 16.944830  9.980920  9.453049
298  2 0.0000 21.332035 11.859985 13.654405
299  2 0.0000 25.719240 13.739049 17.855760
300  2 0.0000 30.106444 15.618114 22.057115
301  2 0.0000 12.557627 10.825212  1.050339
302  2 0.0000 16.944832 12.704276  5.251694
303  2 0.0000 21.332037 14.583340  9.453049
304  2 0.0000 25.719241 16.462405 13.654405
305  2 0.0000 30.106446 18.341469 17.855760
306  2 0.0000 34.493651 20.220534 22.057115
307  2 0.0000 16.944834 15.427632  1.050339
308  2 0.0000 21.332038 17.306696  5.251694
309  2 0.0000 25.719243 19.185761  9.453049
310  2 0.0000 30.106448 21.064825 13.654405
311  2 0.0000 34.493652 22.943890 17.855760
312  2 0.0000 38.880857 24.822954 22.057115
313  2 0.0000 10.141663  1.620371  1.050339
314  2 0.0000 14.528867  3.499436  5.251694
315  2 0.0000 18.916072  5.378500  9.453049
316  2 0.0000 23.303276  7.257564 13.654405
317  2 0.0000 27.690481  9.136629 17.855760
318  2 0.0000 32.077686 11.015693 22.057115
319  2 0.0000 14.528869  6.222791  1.050339
320  2 0.0000 18.916074  8.101856  5.251694
321  2 0.0000 23.303278  9.980920  9.453049
322  2 0.0000 27.690483 11.859985 13.654405
323  2 0.0000 32.077687 13.739049 17.855760
324  2 0.0000 36.464892 15.618114 22.057115
325  2 0.0000 18.916075 10.825212  1.050339
326  2 0.0000 23.303280 12.704276  5.251694
327  2 0.0000 27.690485 14.583340  9.453049
328  2 0.0000 32.077689 16.462405 13.654405
329  2 0.0000 36.464894 18.341469 17.855760
330  2 0.0000 40.852098 20.220534 22.057115
331  2 0.0000 23.303282 15.427632  1.050339
332  2 0.0000 27.690486 17.306696  5.251694
333  2 0.0000 32.077691 19.185761  9.453049
334  2 0.0000 36.464896 21.064825 13.654405
335  2 0.0000 40.852100 22.943890 17.855760
336  2 0.0000 45.239305 24.822954 22.057115
337  2 0.0000 16.500110  1.620371  1.050339
338  2 0.0000 20.887315  3.499436  5.251694
339  2 0.0000 25.274520  5.378500  9.453049
340  2 0.0000 29.661724  7.257564 13.654405
341  2 0.0000 34.048929  9.136629 17.855760
342  2 0.0000 38.436134 11.015693 22.057115
343  2 0.0000 20.887317  6.222791  1.050339
344  2 0.0000 25.274521  8.101856  5.251694
345  2 0.0000 29.661726  9.980920  9.453049
346  2 0.0000 34.048931 11.859985 13.654405
347  2 0.0000 38.436135 13.739049 17.855760
348  2 0.0000 42.823340 15.618114 22.057115
349  2 0.0000 25.274523 10.825212  1.050339
350  2 0.0000 29.661728 12.704276  5.251694
351  2 0.0000 34.048932 14.583340  9.453049
352  2 0.0000 38.436137 16.462405 13.654405
353  2 0.0000 42.823342 18.341469 17.855760
354  2 0.0000 47.210546 20.220534 22.057115
355  2 0.0000 29.661729 15.427632  1.050339
356  2 0.0000 34.048934 17.306696  5.251694
357  2 0.0000 38.436139 19.185761  9.453049
358  2 0.0000 42.823343 21.064825 13.654405
359  2 0.0000 47.210548 22.943890 17.855760
360  2 0.0000 51.597753 24.822954 22.057115
361  2 0.0000 22.858558  1.620371  1.050339
362  2 0.0000 27.245763  3.499436  5.251694
363  2 0.0000 31.632967  5.378500  9.453049
364  2 0.0000 36.020172  7.257564 13.654405
365  2 0.0000 40.407377  9.136629 17.855760
366  2 0.0000 44.794581 11.015693 22.057115
367  2 0.0000 27.245765  6.222791  1.050339
368  2 0.0000 31.632969  8.101856  5.251694
369  2 0.0000 36.020174  9.980920  9.453049
370  2 0.0000 40.407378 11.859985 13.654405
371  2 0.0000 44.794583 13.739049 17.855760
372  2 0.0000 49.181788 15.618114 22.057115
373  2 0.0000 31.632971 10.825212  1.050339
374  2 0.0000 36.020176 12.704276  5.251694
375  2 0.0000 40.407380 14.583340  9.453049
376  2 0.0000 44.794585 16.462405 13.654405
377  2 0.0000 49.181789 18.341469 17.855760
378  2 0.0000 53.568994 20.220534 22.057115
379  2 0.0000 36.020177 15.427632  1.050339
380  2 0.0000 40.407382 17.306696  5.251694
381  2 0.0000 44.794587 19.185761  9.453049
382  2 0.0000 49.181791 21.064825 13.654405
383  2 0.0000 53.568996 22.943890 17.855760
384  2 0.0000 57.956200 24.822954 22.057115
385  3 0.0000  6.962439  2.279880  0.032906
386  3 0.0000 11.349644  4.158944  4.234262
387  3 0.0000 15.736848  6.038009  8.435617
388  3 0.0000 20.124053  7.917073 12.636972
389  3 0.0000 24.511258  9.796138 16.838327
390  3 0.0000 28.898462 11.675202 21.039683
391  3 0.0000 11.349645  6.882300  0.032906
392  3 0.0000 15.736850  8.761365  4.234262
393  3 0.0000 20.124055 10.640429  8.435617
394  3 0.0000 24.511259 12.519494 12.636972
395  3 0.0000 28.898464 14.398558 16.838327
396  3 0.0000 33.285669 16.277622 21.039683
397  3 0.0000 15.736852 11.484720  0.032906
398  3 0.0000 20.124056 13.363785  4.234262
399  3 0.0000 24.511261 15.242849  8.435617
400  3 0.0000 28.898466 17.121914 12.636972
401  3 0.0000 33.285670 19.000978 16.838327
402  3 0.0000 37.672875 20.880043 21.039683
403  3 0.0000 20.124058 16.087141  0.032906
404  3 0.0000 24.511263 17.966205  4.234262
405  3 0.0000 28.898467 19.845270  8.435617
406  3 0.0000 33.285672 21.724334 12.636972
407  3 0.0000 37.672877 23.603398 16.838327
408  3 0.0000 42.060081 25.482463 21.039683
409  3 0.0000 13.320887  2.279880  0.032906
410  3 0.0000 17.708092  4.158944  4.234262
411  3 0.0000 22.095296  6.038009  8.435617
412  3 0.0000 26.482501  7.917073 12.636972
413  3 0.0000 30.869705  9.796138 16.838327
414  3 0.0000 35.256910 11.675202 21.039683
415  3 0.0000 17.708093  6.882300  0.032906
416  3 0.0000 22.095298  8.761365  4.234262
417  3 0.0000 26.482503 10.640429  8.435617
418  3 0.0000 30.869707 12.519494 12.636972
419  3 0.0000 35.256912 14.398558 16.838327
420  3 0.0000 39.644116 16.277622 21.039683
421  3 0.0000 22.095300 11.484720  0.032906
422  3 0.0000 26.482504 13.363785  4.234262
423  3 0.0000 30.869709 15.242849  8.435617
424  3 0.0000 35.256913 17.121914 12.636972
425  3 0.0000 39.644118 19.000978 16.838327
426  3 0.0000 44.031323 20.880043 21.039683
427  3 0.0000 26.482506 16.087141  0.032906
428  3 0.0000 30.869711 17.966205  4.234262
429  3 0.0000 35.256915 19.845270  8.435617
430  3 0.0000 39.644120 21.724334 12.636972
431  3 0.0000 44.031324 23.603398 16.838327
432  3 0.0000 48.418529 25.482463 21.039683
433  3 0.0000 19.679335  2.279880  0.032906
434  3 0.0000 24.066539  4.158944  4.234262
435  3 0.0000 28.453744  6.038009  8.435617
436  3 0.0000 32.840949  7.917073 12.636972
437  3 0.0000 37.228153  9.796138 16.838327
438  3 0.0000 41.615358 11.675202 21.039683
439  3 0.0000 24.066541  6.882300  0.032906
440  3 0.0000 28.453746  8.761365  4.234262
441  3 0.0000 32.840950 10.640429  8.435617
442  3 0.0000 37.228155 12.519494 12.636972
443  3 0.0000 41.615360 14.398558 16.838327
444  3 0.0000 46.002564 16.277622 21.039683
445  3 0.0000 28.453747 11.484720  0.032906
446  3 0.0000 32.840952 13.363785  4.234262
447  3 0.0000 37.228157 15.242849  8.435617
448  3 0.0000 41.615361 17.121914 12.636972
449  3 0.0000 46.002566 19.000978 16.838327
450  3 0.0000 50.389771 20.880043 21.039683
451  3 0.0000 32.840954 16.087141  0.032906
452  3 0.0000 37.228158 17.966205  4.234262
453  3 0.0000 41.615363 19.845270  8.435617
454  3 0.0000 46.002568 21.724334 12.636972
455  3 0.0000 50.389772 23.603398 16.838327
456  3 0.0000 54.776977 25.482463 21.039683
457  3 0.0000 26.037783  2.279880  0.032906
458  3 0.0000 30.424987  4.158944  4.234262
459  3 0.0000 34.812192  6.038009  8.435617
460  3 0.0000 39.199396  7.917073 12.636972
461  3 0.0000 43.586601  9.796138 16.838327
462  3 0.0000 47.973806 11.675202 21.039683
463  3 0.0000 30.424989  6.882300  0.032906
464  3 0.0000 34.812194  8.761365  4.234262
465  3 0.0000 39.199398 10.640429  8.435617
466  3 0.0000 43.586603 12.519494 12.636972
467  3 0.0000 47.973807 14.398558 16.838327
468  3 0.0000 52.361012 16.277622 21.039683
469  3 0.0000 34.812195 11.484720  0.032906
470  3 0.0000 39.199400 13.363785  4.234262
471  3 0.0000 43.586605 15.242849  8.435617
472  3 0.0000 47.973809 17.121914 12.636972
473  3 0.0000 52.361014 19.000978 16.838327
474  3 0.0000 56.748218 20.880043 21.039683
475  3 0.0000 39.199402 16.087141  0.032906
476  3 0.0000 43.586606 17.966205  4.234262
477  3 0.0000 47.973811 19.845270  8.435617
478  3 0.0000 52.361015 21.724334 12.636972
479  3 0.0000 56.748220 23.603398 16.838327
480  3 0.0000 61.135425 25.482463 21.039683
481  3 0.0000  5.499446  4.376630  2.067771
482  3 0.0000  9.886651  6.255694  6.269127
483  3 0.0000 14.273856  8.134759 10.470482
484  3 0.0000 18.661060 10.013823 14.671837
485  3 0.0000 23.048265 11.892888 18.873193
486  3 0.0000 27.435470 13.771952 23.074548
487  3 0.0000  9.886653  8.979050  2.067771
488  3 0.0000 14.273857 10.858115  6.269127
489  3 0.0000 18.661062 12.737179 10.470482
490  3 0.0000 23.048267 14.616244 14.671837
491  3 0.0000 27.435471 16.495308 18.873193
492  3 0.0000 31.822676 18.374372 23.074548
493  3 0.0000 14.273859 13.581470  2.067771
494  3 0.0000 18.661064 15.460535  6.269127
495  3 0.0000 23.048268 17.339599 10.470482
496  3 0.0000 27.435473 19.218664 14.671837
497  3 0.0000 31.822678 21.097728 18.873193
498  3 0.0000 36.209882 22.976793 23.074548
499  3 0.0000 18.661065 18.183891  2.067771
500  3 0.0000 23.048270 20.062955  6.269127
501  3 0.0000 27.435475 21.942020 10.470482
502  3 0.0000 31.822679 23.821084 14.671837
503  3 0.0000 36.209884 25.700148 18.873193
504  3 0.0000 40.597089 27.579213 23.074548
505  3 0.0000 11.857894  4.376630  2.067771
506  3 0.0000 16.245099  6.255694  6.269127
507  3 0.0000 20.632304  8.134759 10.470482
508  3 0.0000 25.019508 10.013823 14.671837
509  3 0.0000 29.406713 11.892888 18.873193
510  3 0.0000 33.793917 13.771952 23.074548
511  3 0.0000 16.245101  8.979050  2.067771
512  3 0.0000 20.632305 10.858115  6.269127
513  3 0.0000 25.019510 12.737179 10.470482
514  3 0.0000 29.406715 14.616244 14.671837
515  3 0.0000 33.793919 16.495308 18.873193
516  3 0.0000 38.181124 18.374372 23.074548
517  3 0.0000 20.632307 13.581470  2.067771
518  3 0.0000 25.019512 15.460535  6.269127
519  3 0.0000 29.406716 17.339599 10.470482
520  3 0.0000 33.793921 19.218664 14.671837
521  3 0.0000 38.181126 21.097728 18.873193
522  3 0.0000 42.568330 22.976793 23.074548
523  3 0.0000 25.019513 18.183891  2.067771
524  3 0.0000 29.406718 20.062955  6.269127
525  3 0.0000 33.793923 21.942020 10.470482
526  3 0.0000 38.181127 23.821084 14.671837
527  3 0.0000 42.568332 25.700148 18.873193
528  3 0.0000 46.955537 27.579213 23.074548
529  3 0.0000 18.216342  4.376630  2.067771
530  3 0.0000 22.603547  6.255694  6.269127
531  3 0.0000 26.990751  8.134759 10.470482
532  3 0.0000 31.377956 10.013823 14.671837
533  3 0.0000 35.765161 11.892888 18.873193
534  3 0.0000 40.152365 13.771952 23.074548
535  3 0.0000 22.603548  8.979050  2.067771
536  3 0.0000 26.990753 10.858115  6.269127
537  3 0.0000 31.377958 12.737179 10.470482
538  3 0.0000 35.765162 14.616244 14.671837
539  3 0.0000 40.152367 16.495308 18.873193
540  3 0.0000 44.539572 18.374372 23.074548
541  3 0.0000 26.990755 13.581470  2.067771
542  3 0.0000 31.377959 15.460535  6.269127
543  3 0.0000 35.765164 17.339599 10.470482
544  3 0.0000 40.152369 19.218664 14.671837
545  3 0.0000 44.539573 21.097728 18.873193
546  3 0.0000 48.926778 22.976793 23.074548
547  3 0.0000 31.377961 18.183891  2.067771
548  3 0.0000 35.765166 20.062955  6.269127
549  3 0.0000 40.152370 21.942020 10.470482
550  3 0.0000 44.539575 23.821084 14.671837
551  3 0.0000 48.926780 25.700148 18.873193
552  3 0.0000 53.313984 27.579213 23.074548
553  3 0.0000 24.574790  4.376630  2.067771
554  3 0.0000 28.961995  6.255694  6.269127
555  3 0.0000 33.349199  8.134759 10.470482
556  3 0.0000 37.736404 10.013823 14.671837
557  3 0.0000 42.123609 11.892888 18.873193
558  3 0.0000 46.510813 13.771952 23.074548
559  3 0.0000 28.961996  8.979050  2.067771
560  3 0.0000 33.349201 10.858115  6.269127
561  3 0.0000 37.736406 12.737179 10.470482
562  3 0.0000 42.123610 14.616244 14.671837
563  3 0.0000 46.510815 16.495308 18.873193
564  3 0.0000 50.898020 18.374372 23.074548
565  3 0.0000 33.349203 13.581470  2.067771
566  3 0.0000 37.736407 15.460535  6.269127
567  3 0.0000 42.123612 17.339599 10.470482
568  3 0.0000 46.510817 19.218664 14.671837
569  3 0.0000 50.898021 21.097728 18.873193
570  3 0.0000 55.285226 22.976793 23.074548
571  3 0.0000 37.736409 18.183891  2.067771
572  3 0.0000 42.123614 20.062955  6.269127
573  3 0.0000 46.510818 21.942020 10.470482
574  3 0.0000 50.898023 23.821084 14.671837
575  3 0.0000 55.285228 25.700148 18.873193
576  3 0.0000 59.672432 27.579213 23.074548
577  3 0.0000  8.678671  5.036139  1.050339
578  3 0.0000 13.065875  6.915203  5.251694
579  3 0.0000 17.453080  8.794268  9.453049
580  3 0.0000 21.840285 10.673332 13.654405
581  3 0.0000 26.227489 12.552397 17.855760
582  3 0.0000 30.614694 14.431461 22.057115
583  3 0.0000 13.065877  9.638559  1.050339
584  3 0.0000 17.453082 11.517624  5.251694
585  3 0.0000 21.840286 13.396688  9.453049
586  3 0.0000 26.227491 15.275752 13.654405
587  3 0.0000 30.614696 17.154817 17.855760
588  3 0.0000 35.001900 19.033881 22.057115
589  3 0.0000 17.453083 14.240979  1.050339
590  3 0.0000 21.840288 16.120044  5.251694
591  3 0.0000 26.227493 17.999108  9.453049
592  3 0.0000 30.614697 19.878173 13.654405
593  3 0.0000 35.001902 21.757237 17.855760
594  3 0.0000 39.389107 23.636301 22.057115
595  3 0.0000 21.840290 18.843400  1.050339
596  3 0.0000 26.227494 20.722464  5.251694
597  3 0.0000 30.614699 22.601528  9.453049
598  3 0.0000 35.001904 24.480593 13.654405
599  3 0.0000 39.389108 26.359657 17.855760
600  3 0.0000 43.776313 28.238722 22.057115
601  3 0.0000 15.037119  5.036139  1.050339
602  3 0.0000 19.424323  6.915203  5.251694
603  3 0.0000 23.811528  8.794268  9.453049
604  3 0.0000 28.198733 10.673332 13.654405
605  3 0.0000 32.585937 12.552397 17.855760
606  3 0.0000 36.973142 14.431461 22.057115
607  3 0.0000 19.424325  9.638559  1.050339
608  3 0.0000 23.811530 11.517624  5.251694
609  3 0.0000 28.198734 13.396688  9.453049
610  3 0.0000 32.585939 15.275752 13.654405
611  3 0.0000 36.973144 17.154817 17.855760
612  3 0.0000 41.360348 19.033881 22.057115
613  3 0.0000 23.811531 14.240979  1.050339
614  3 0.0000 28.198736 16.120044  5.251694
615  3 0.0000 32.585941 17.999108  9.453049
616  3 0.0000 36.973145 19.878173 13.654405
617  3 0.0000 41.360350 21.757237 17.855760
618  3 0.0000 45.747555 23.636301 22.057115
619  3 0.0000 28.198738 18.843400  1.050339
620  3 0.0000 32.585942 20.722464  5.251694
621  3 0.0000 36.973147 22.601528  9.453049
622  3 0.0000 41.360352 24.480593 13.654405
623  3 0.0000 45.747556 26.359657 17.855760
624  3 0.0000 50.134761 28.238722 22.057115
625  3 0.0000 21.395566  5.036139  1.050339
626  3 0.0000 25.782771  6.915203  5.251694
627  3 0.0000 30.169976  8.794268  9.453049
628  3 0.0000 34.557180 10.673332 13.654405
629  3 0.0000 38.944385 12.552397 17.855760
630  3 0.0000 43.331590 14.431461 22.057115
631  3 0.0000 25.782773  9.638559  1.050339
632  3 0.0000 30.169977 11.517624  5.251694
633  3 0.0000 34.557182 13.396688  9.453049
634  3 0.0000 38.944387 15.275752 13.654405
635  3 0.0000 43.331591 17.154817 17.855760
636  3 0.0000 47.718796 19.033881 22.057115
637  3 0.0000 30.169979 14.240979  1.050339
638  3 0.0000 34.557184 16.120044  5.251694
639  3 0.0000 38.944388 17.999108  9.453049
640  3 0.0000 43.331593 19.878173 13.654405
641  3 0.0000 47.718798 21.757237 17.855760
642  3 0.0000 52.106002 23.636301 22.057115
643  3 0.0000 34.557185 18.843400  1.050339
644  3 0.0000 38.944390 20.722464  5.251694
645  3 0.0000 43.331595 22.601528  9.453049
646  3 0.0000 47.718799 24.480593 13.654405
647  3 0.0000 52.106004 26.359657 17.855760
648  3 0.0000 56.493209 28.238722 22.057115
649  3 0.0000 27.754014  5.036139  1.050339
650  3 0.0000 32.141219  6.915203  5.251694
651  3 0.0000 36.528424  8.794268  9.453049
652  3 0.0000 40.915628 10.673332 13.654405
653  3 0.0000 45.302833 12.552397 17.855760
654  3 0.0000 49.690037 14.431461 22.057115
655  3 0.0000 32.141221  9.638559  1.050339
656  3 0.0000 36.528425 11.517624  5.251694
657  3 0.0000 40.915630 13.396688  9.453049
658  3 0.0000 45.302835 15.275752 13.654405
659  3 0.0000 49.690039 17.154817 17.855760
660  3 0.0000 54.077244 19.033881 22.057115
661  3 0.0000 36.528427 14.240979  1.050339
662  3 0.0000 40.915632 16.120044  5.251694
663  3 0.0000 45.302836 17.999108  9.453049
664  3 0.0000 49.690041 19.878173 13.654405
665  3 0.0000 54.077246 21.757237 17.855760
666  3 0.0000 58.464450 23.636301 22.057115
667  3 0.0000 40.915633 18.843400  1.050339
668  3 0.0000 45.302838 20.722464  5.251694
669  3 0.0000 49.690043 22.601528  9.453049
670  3 0.0000 54.077247 24.480593 13.654405
671  3 0.0000 58.464452 26.359657 17.855760
672  3 0.0000 62.851657 28.238722 22.057115
673  3 0.0000  8.170420  4.201605  4.168449
674  3 0.0000 12.557624  6.080669  8.369804
675  3 0.0000 16.944829  7.959734 12.571160
676  3 0.0000 21.332034  9.838798 16.772515