Generated by pymatgen.io.lammps.data.LammpsData

160  atoms

  3  atom types

0.000000 12.716896  xlo xhi
0.000000 9.204840  ylo yhi
0.000000 16.805421  zlo zhi
8.774413 17.548819 7.516258  xy xz yz

Masses

1  40.0780
2  12.0107
3  15.9994

Atoms

1    1 0.0000  7.566429  3.240742  2.100678
2    1 0.0000 11.953634  5.119807  6.302033
3    1 0.0000 16.340839  6.998871 10.503388
4    1 0.0000 20.728043  8.877936 14.704744
5    1 0.0000 11.953636  7.843163  2.100678
6    1 0.0000 16.340840  9.722227  6.302033
7    1 0.0000 20.728045 11.601291 10.503388
8    1 0.0000 25.115250 13.480356 14.704744
9    1 0.0000 13.924877  3.240742  2.100678
10   1 0.0000 18.312082  5.119807  6.302033
11   1 0.0000 22.699287  6.998871 10.503388
12   1 0.0000 27.086491  8.877936 14.704744
13   1 0.0000 18.312084  7.843163  2.100678
14   1 0.0000 22.699288  9.722227  6.302033
15   1 0.0000 27.086493 11.601291 10.503388
16   1 0.0000 31.473698 13.480356 14.704744
17   1 0.0000  0.000000  0.000000  0.000000
18   1 0.0000  4.387205  1.879064  4.201355
19   1 0.0000  8.774409  3.758129  8.402711
20   1 0.0000 13.161614  5.637193 12.604066
21   1 0.0000  4.387206  4.602420  0.000000
22   1 0.0000  8.774411  6.481485  4.201355
23   1 0.0000 13.161616  8.360549  8.402711
24   1 0.0000 17.548820 10.239614 12.604066
25   1 0.0000  6.358448  0.000000  0.000000
26   1 0.0000 10.745652  1.879064  4.201355
27   1 0.0000 15.132857  3.758129  8.402711
28   1 0.0000 19.520062  5.637193 12.604066
29   1 0.0000 10.745654  4.602420  0.000000
30   1 0.0000 15.132859  6.481485  4.201355
31   1 0.0000 19.520063  8.360549  8.402711
32   1 0.0000 23.907268 10.239614 12.604066
33   2 0.0000 11.349644  4.861113  3.151016
34   2 0.0000 15.736849  6.740178  7.352372
35   2 0.0000 20.124053  8.619242 11.553727
36   2 0.0000 24.511258 10.498307 15.755082
37   2 0.0000 15.736850  9.463534  3.151016
38   2 0.0000 20.124055 11.342598  7.352372
39   2 0.0000 24.511260 13.221663 11.553727
40   2 0.0000 28.898464 15.100727 15.755082
41   2 0.0000 17.708092  4.861113  3.151016
42   2 0.0000 22.095297  6.740178  7.352372
43   2 0.0000 26.482501  8.619242 11.553727
44   2 0.0000 30.869706 10.498307 15.755082
45   2 0.0000 22.095298  9.463534  3.151016
46   2 0.0000 26.482503 11.342598  7.352372
47   2 0.0000 30.869708 13.221663 11.553727
48   2 0.0000 35.256912 15.100727 15.755082
49   2 0.0000  3.783215  1.620371  1.050339
50   2 0.0000  8.170419  3.499436  5.251694
51   2 0.0000 12.557624  5.378500  9.453049
52   2 0.0000 16.944829  7.257564 13.654405
53   2 0.0000  8.170421  6.222791  1.050339
54   2 0.0000 12.557626  8.101856  5.251694
55   2 0.0000 16.944830  9.980920  9.453049
56   2 0.0000 21.332035 11.859985 13.654405
57   2 0.0000 10.141663  1.620371  1.050339
58   2 0.0000 14.528867  3.499436  5.251694
59   2 0.0000 18.916072  5.378500  9.453049
60   2 0.0000 23.303276  7.257564 13.654405
61   2 0.0000 14.528869  6.222791  1.050339
62   2 0.0000 18.916074  8.101856  5.251694
63   2 0.0000 23.303278  9.980920  9.453049
64   2 0.0000 27.690483 11.859985 13.654405
65   3 0.0000  6.962439  2.279880  0.032906
66   3 0.0000 11.349644  4.158944  4.234262
67   3 0.0000 15.736848  6.038009  8.435617
68   3 0.0000 20.124053  7.917073 12.636972
69   3 0.0000 11.349645  6.882300  0.032906
70   3 0.0000 15.736850  8.761365  4.234262
71   3 0.0000 20.124055 10.640429  8.435617
72   3 0.0000 24.511259 12.519494 12.636972
73   3 0.0000 13.320887  2.279880  0.032906
74   3 0.0000 17.708092  4.158944  4.234262
75   3 0.0000 22.095296  6.038009  8.435617
76   3 0.0000 26.482501  7.917073 12.636972
77   3 0.0000 17.708093  6.882300  0.032906
78   3 0.0000 22.095298  8.761365  4.234262
79   3 0.0000 26.482503 10.640429  8.435617
80   3 0.0000 30.869707 12.519494 12.636972
81   3 0.0000  5.499446  4.376630  2.067771
82   3 0.0000  9.886651  6.255694  6.269127
83   3 0.0000 14.273856  8.134759 10.470482
84   3 0.0000 18.661060 10.013823 14.671837
85   3 0.0000  9.886653  8.979050  2.067771
86   3 0.0000 14.273857 10.858115  6.269127
87   3 0.0000 18.661062 12.737179 10.470482
88   3 0.0000 23.048267 14.616244 14.671837
89   3 0.0000 11.857894  4.376630  2.067771
90   3 0.0000 16.245099  6.255694  6.269127
91   3 0.0000 20.632304  8.134759 10.470482
92   3 0.0000 25.019508 10.013823 14.671837
93   3 0.0000 16.245101  8.979050  2.067771
94   3 0.0000 20.632305 10.858115  6.269127
95   3 0.0000 25.019510 12.737179 10.470482
96   3 0.0000 29.406715 14.616244 14.671837
97   3 0.0000  8.678671  5.036139  1.050339
98   3 0.0000 13.065875  6.915203  5.251694
99   3 0.0000 17.453080  8.794268  9.453049
100  3 0.0000 21.840285 10.673332 13.654405
101  3 0.0000 13.065877  9.638559  1.050339
102  3 0.0000 17.453082 11.517624  5.251694
103  3 0.0000 21.840286 13.396688  9.453049
104  3 0.0000 26.227491 15.275752 13.654405
105  3 0.0000 15.037119  5.036139  1.050339
106  3 0.0000 19.424323  6.915203  5.251694
107  3 0.0000 23.811528  8.794268  9.453049
108  3 0.0000 28.198733 10.673332 13.654405
109  3 0.0000 19.424325  9.638559  1.050339
110  3 0.0000 23.811530 11.517624  5.251694
111  3 0.0000 28.198734 13.396688  9.453049
112  3 0.0000 32.585939 15.275752 13.654405
113  3 0.0000  8.170420  4.201605  4.168449
114  3 0.0000 12.557624  6.080669  8.369804
115  3 0.0000 16.944829  7.959734 12.571160
116  3 0.0000 21.332034  9.838798 16.772515
117  3 0.0000 12.557626  8.804025  4.168449
118  3 0.0000 16.944831 10.683089  8.369804
119  3 0.0000 21.332035 12.562154 12.571160
120  3 0.0000 25.719240 14.441218 16.772515
121  3 0.0000 14.528868  4.201605  4.168449
122  3 0.0000 18.916072  6.080669  8.369804
123  3 0.0000 23.303277  7.959734 12.571160
124  3 0.0000 27.690482  9.838798 16.772515
125  3 0.0000 18.916074  8.804025  4.168449
126  3 0.0000 23.303279 10.683089  8.369804
127  3 0.0000 27.690483 12.562154 12.571160
128  3 0.0000 32.077688 14.441218 16.772515
129  3 0.0000  9.633412  2.104855  2.133584
130  3 0.0000 14.020617  3.983919  6.334939
131  3 0.0000 18.407822  5.862984 10.536294
132  3 0.0000 22.795026  7.742048 14.737650
133  3 0.0000 14.020619  6.707275  2.133584
134  3 0.0000 18.407823  8.586339  6.334939
135  3 0.0000 22.795028 10.465404 10.536294
136  3 0.0000 27.182233 12.344468 14.737650
137  3 0.0000 15.991860  2.104855  2.133584
138  3 0.0000 20.379065  3.983919  6.334939
139  3 0.0000 24.766270  5.862984 10.536294
140  3 0.0000 29.153474  7.742048 14.737650
141  3 0.0000 20.379067  6.707275  2.133584
142  3 0.0000 24.766271  8.586339  6.334939
143  3 0.0000 29.153476 10.465404 10.536294
144  3 0.0000 33.540681 12.344468 14.737650
145  3 0.0000  6.454188  1.445346  3.151016
146  3 0.0000 10.841393  3.324410  7.352372
147  3 0.0000 15.228597  5.203475 11.553727
148  3 0.0000 19.615802  7.082539 15.755082
149  3 0.0000 10.841394  6.047766  3.151016
150  3 0.0000 15.228599  7.926830  7.352372
151  3 0.0000 19.615804  9.805895 11.553727
152  3 0.0000 24.003008 11.684959 15.755082
153  3 0.0000 12.812636  1.445346  3.151016
154  3 0.0000 17.199841  3.324410  7.352372
155  3 0.0000 21.587045  5.203475 11.553727
156  3 0.0000 25.974250  7.082539 15.755082
157  3 0.0000 17.199842  6.047766  3.151016
158  3 0.0000 21.587047  7.926830  7.352372
159  3 0.0000 25.974252  9.805895 11.553727
160  3 0.0000 30.361456 11.684959 15.755082

