Generated by pymatgen.io.lammps.data.LammpsData

112  atoms

  4  atom types

0.000000 13.058122  xlo xhi
0.000000 9.577725  ylo yhi
0.000000 10.451016  zlo zhi
8.875907 -21.934029 -9.577725  xy xz yz

Masses

1   40.078000
2  157.250000
3   26.981539
4   15.999400

Atoms

1    1 0.0000   7.050376  3.078621  0.000000
2    1 0.0000   1.566868  0.684190  2.612754
3    1 0.0000  -3.916639 -1.710242  5.225508
4    1 0.0000  -9.400146 -4.104673  7.838262
5    1 0.0000 -10.445700 -1.710242 10.451016
6    1 0.0000   6.004822  5.473052  2.612754
7    1 0.0000   0.521315  3.078621  5.225508
8    1 0.0000  -4.962193  0.684190  7.838262
9    1 0.0000  -8.354593 -6.499104 10.451016
10   1 0.0000   8.095929  0.684190  2.612754
11   1 0.0000   2.612422 -1.710242  5.225508
12   1 0.0000  -2.871085 -4.104673  7.838262
13   1 0.0000  -3.916639 -1.710242 10.451016
14   1 0.0000  12.533883  5.473052  2.612754
15   1 0.0000   7.050376  3.078621  5.225508
16   1 0.0000   1.566868  0.684190  7.838262
17   2 0.0000   3.924053  1.713479  0.000000
18   2 0.0000  -1.559455 -0.680952  2.612754
19   2 0.0000  -7.042962 -3.075383  5.225508
20   2 0.0000 -12.526469 -5.469815  7.838262
21   2 0.0000   8.362006  6.502341  0.000000
22   2 0.0000   2.878499  4.107910  2.612754
23   2 0.0000  -2.605008  1.713479  5.225508
24   2 0.0000  -8.088515 -0.680952  7.838262
25   2 0.0000  10.453113  1.713479  0.000000
26   2 0.0000   4.969606 -0.680952  2.612754
27   2 0.0000  -0.513901 -3.075383  5.225508
28   2 0.0000  -5.997408 -5.469815  7.838262
29   2 0.0000  14.891067  6.502341  0.000000
30   2 0.0000   9.407560  4.107910  2.612754
31   2 0.0000   3.924053  1.713479  5.225508
32   2 0.0000  -1.559455 -0.680952  7.838262
33   3 0.0000   0.061613  0.026904  0.000000
34   3 0.0000  -5.421895 -2.367527  2.612754
35   3 0.0000 -10.905402 -4.761959  5.225508
36   3 0.0000 -16.388909 -7.156390  7.838262
37   3 0.0000   4.499566  4.815766  0.000000
38   3 0.0000  -0.983941  2.421335  2.612754
39   3 0.0000  -6.467448  0.026904  5.225508
40   3 0.0000 -11.950955 -2.367527  7.838262
41   3 0.0000   6.590674  0.026904  0.000000
42   3 0.0000   1.107166 -2.367527  2.612754
43   3 0.0000  -4.376341 -4.761959  5.225508
44   3 0.0000  -9.859848 -7.156390  7.838262
45   3 0.0000  11.028627  4.815766  0.000000
46   3 0.0000   5.545120  2.421335  2.612754
47   3 0.0000   0.061613  0.026904  5.225508
48   3 0.0000  -5.421895 -2.367527  7.838262
49   4 0.0000   9.133790  3.988366  0.000000
50   4 0.0000   3.650283  1.593935  2.612754
51   4 0.0000  -1.833224 -0.800497  5.225508
52   4 0.0000  -7.316731 -3.194928  7.838262
53   4 0.0000  13.571744  8.777228  0.000000
54   4 0.0000   8.088237  6.382797  2.612754
55   4 0.0000   2.604729  3.988366  5.225508
56   4 0.0000  -2.878778  1.593935  7.838262
57   4 0.0000  15.662851  3.988366  0.000000
58   4 0.0000  10.179344  1.593935  2.612754
59   4 0.0000   4.695837 -0.800497  5.225508
60   4 0.0000  -0.787671 -3.194928  7.838262
61   4 0.0000  -1.833224 -0.800497 10.451016
62   4 0.0000  14.617298  6.382797  2.612754
63   4 0.0000   9.133790  3.988366  5.225508
64   4 0.0000   3.650283  1.593935  7.838262
65   4 0.0000   1.851835  0.808623  0.000000
66   4 0.0000  -3.631672 -1.585808  2.612754
67   4 0.0000  -9.115179 -3.980239  5.225508
68   4 0.0000 -14.598687 -6.374670  7.838262
69   4 0.0000 -15.644240 -3.980239 10.451016
70   4 0.0000   0.806282  3.203055  2.612754
71   4 0.0000  -4.677226  0.808623  5.225508
72   4 0.0000 -10.160733 -1.585808  7.838262
73   4 0.0000   8.380896  0.808623  0.000000
74   4 0.0000   2.897389 -1.585808  2.612754
75   4 0.0000  -2.586118 -3.980239  5.225508
76   4 0.0000  -8.069626 -6.374670  7.838262
77   4 0.0000  12.818850  5.597486  0.000000
78   4 0.0000   7.335343  3.203055  2.612754
79   4 0.0000   1.851835  0.808623  5.225508
80   4 0.0000  -3.631672 -1.585808  7.838262
81   4 0.0000   4.916906  3.572510  1.306377
82   4 0.0000  -0.566601  1.178079  3.919131
83   4 0.0000  -6.050108 -1.216352  6.531885
84   4 0.0000 -11.533616 -3.610783  9.144639
85   4 0.0000   9.354860  8.361373  1.306377
86   4 0.0000   3.871353  5.966942  3.919131
87   4 0.0000  -1.612155  3.572510  6.531885
88   4 0.0000  -7.095662  1.178079  9.144639
89   4 0.0000  11.445967  3.572510  1.306377
90   4 0.0000   5.962460  1.178079  3.919131
91   4 0.0000   0.478953 -1.216352  6.531885
92   4 0.0000  -5.004555 -3.610783  9.144639
93   4 0.0000  15.883921  8.361373  1.306377
94   4 0.0000  10.400414  5.966942  3.919131
95   4 0.0000   4.916906  3.572510  6.531885
96   4 0.0000  -0.566601  1.178079  9.144639
97   4 0.0000   5.962460  1.178079  1.306377
98   4 0.0000   0.478953 -1.216352  3.919131
99   4 0.0000  -5.004555 -3.610783  6.531885
100  4 0.0000 -10.488062 -6.005214  9.144639
101  4 0.0000  10.400414  5.966942  1.306377
102  4 0.0000   4.916906  3.572510  3.919131
103  4 0.0000  -0.566601  1.178079  6.531885
104  4 0.0000  -6.050108 -1.216352  9.144639
105  4 0.0000  12.491521  1.178079  1.306377
106  4 0.0000   7.008013 -1.216352  3.919131
107  4 0.0000   1.524506 -3.610783  6.531885
108  4 0.0000  -3.959001 -6.005214  9.144639
109  4 0.0000  16.929474  5.966942  1.306377
110  4 0.0000  11.445967  3.572510  3.919131
111  4 0.0000   5.962460  1.178079  6.531885
112  4 0.0000   0.478953 -1.216352  9.144639

