Generated by pymatgen.io.lammps.data.LammpsData

672  atoms

  4  atom types

0.000000 26.116243  xlo xhi
0.000000 19.155449  ylo yhi
0.000000 15.676523  zlo zhi
17.751815 -32.901044 -14.366587  xy xz yz

Masses

1   40.078000
2  157.250000
3   26.981539
4   15.999400

Atoms

1    1 0.0000   7.050376   3.078621 -0.000000
2    1 0.0000   1.566868   0.684190  2.612754
3    1 0.0000  -3.916639  -1.710242  5.225508
4    1 0.0000  -9.400146  -4.104673  7.838262
5    1 0.0000 -14.883653  -6.499104 10.451016
6    1 0.0000 -20.367161  -8.893535 13.063770
7    1 0.0000  11.488329   7.867483  0.000000
8    1 0.0000   6.004822   5.473052  2.612754
9    1 0.0000   0.521315   3.078621  5.225508
10   1 0.0000  -4.962193   0.684190  7.838262
11   1 0.0000 -10.445700  -1.710242 10.451016
12   1 0.0000 -15.929207  -4.104673 13.063770
13   1 0.0000  15.926283  12.656345  0.000000
14   1 0.0000  10.442776  10.261914  2.612754
15   1 0.0000   4.959268   7.867483  5.225508
16   1 0.0000  -0.524239   5.473052  7.838262
17   1 0.0000  -6.007746   3.078621 10.451016
18   1 0.0000 -11.491253   0.684190 13.063770
19   1 0.0000  20.364237  17.445208  0.000000
20   1 0.0000  14.880729  15.050777  2.612754
21   1 0.0000   9.397222  12.656345  5.225508
22   1 0.0000   3.913715  10.261914  7.838262
23   1 0.0000  -1.569792   7.867483 10.451016
24   1 0.0000  -7.053300   5.473052 13.063770
25   1 0.0000  13.579436   3.078621 -0.000000
26   1 0.0000   8.095929   0.684190  2.612754
27   1 0.0000   2.612422  -1.710242  5.225508
28   1 0.0000  -2.871085  -4.104673  7.838262
29   1 0.0000  -8.354593  -6.499104 10.451016
30   1 0.0000 -13.838100  -8.893535 13.063770
31   1 0.0000  18.017390   7.867483  0.000000
32   1 0.0000  12.533883   5.473052  2.612754
33   1 0.0000   7.050376   3.078621  5.225508
34   1 0.0000   1.566868   0.684190  7.838262
35   1 0.0000  -3.916639  -1.710242 10.451016
36   1 0.0000  -9.400146  -4.104673 13.063770
37   1 0.0000  22.455344  12.656345  0.000000
38   1 0.0000  16.971837  10.261914  2.612754
39   1 0.0000  11.488329   7.867483  5.225508
40   1 0.0000   6.004822   5.473052  7.838262
41   1 0.0000   0.521315   3.078621 10.451016
42   1 0.0000  -4.962193   0.684190 13.063770
43   1 0.0000  -6.007746   3.078621 15.676523
44   1 0.0000  21.409790  15.050777  2.612754
45   1 0.0000  15.926283  12.656345  5.225508
46   1 0.0000  10.442776  10.261914  7.838262
47   1 0.0000   4.959268   7.867483 10.451016
48   1 0.0000  -0.524239   5.473052 13.063770
49   1 0.0000  20.108497   3.078621 -0.000000
50   1 0.0000  14.624990   0.684190  2.612754
51   1 0.0000   9.141483  -1.710242  5.225508
52   1 0.0000   3.657975  -4.104673  7.838262
53   1 0.0000  -1.825532  -6.499104 10.451016
54   1 0.0000  -7.309039  -8.893535 13.063770
55   1 0.0000  24.546451   7.867483  0.000000
56   1 0.0000  19.062944   5.473052  2.612754
57   1 0.0000  13.579436   3.078621  5.225508
58   1 0.0000   8.095929   0.684190  7.838262
59   1 0.0000   2.612422  -1.710242 10.451016
60   1 0.0000  -2.871085  -4.104673 13.063770
61   1 0.0000  -3.916639  -1.710242 15.676523
62   1 0.0000  23.500897  10.261914  2.612754
63   1 0.0000  18.017390   7.867483  5.225508
64   1 0.0000  12.533883   5.473052  7.838262
65   1 0.0000   7.050376   3.078621 10.451016
66   1 0.0000   1.566868   0.684190 13.063770
67   1 0.0000  33.422358  17.445208  0.000000
68   1 0.0000  27.938851  15.050777  2.612754
69   1 0.0000  22.455344  12.656345  5.225508
70   1 0.0000  16.971837  10.261914  7.838262
71   1 0.0000  11.488329   7.867483 10.451016
72   1 0.0000   6.004822   5.473052 13.063770
73   1 0.0000  26.637558   3.078621 -0.000000
74   1 0.0000  21.154051   0.684190  2.612754
75   1 0.0000  15.670544  -1.710242  5.225508
76   1 0.0000  10.187036  -4.104673  7.838262
77   1 0.0000   4.703529  -6.499104 10.451016
78   1 0.0000  -0.779978  -8.893535 13.063770
79   1 0.0000  31.075512   7.867483 -0.000000
80   1 0.0000  25.592005   5.473052  2.612754
81   1 0.0000  20.108497   3.078621  5.225508
82   1 0.0000  14.624990   0.684190  7.838262
83   1 0.0000   9.141483  -1.710242 10.451016
84   1 0.0000   3.657975  -4.104673 13.063770
85   1 0.0000  35.513466  12.656345 -0.000000
86   1 0.0000  30.029958  10.261914  2.612754
87   1 0.0000  24.546451   7.867483  5.225508
88   1 0.0000  19.062944   5.473052  7.838262
89   1 0.0000  13.579436   3.078621 10.451016
90   1 0.0000   8.095929   0.684190 13.063770
91   1 0.0000   7.050376   3.078621 15.676523
92   1 0.0000  34.467912  15.050777  2.612754
93   1 0.0000  28.984405  12.656345  5.225508
94   1 0.0000  23.500897  10.261914  7.838262
95   1 0.0000  18.017390   7.867483 10.451016
96   1 0.0000  12.533883   5.473052 13.063770
97   2 0.0000   3.924053   1.713479  0.000000
98   2 0.0000  -1.559455  -0.680952  2.612754
99   2 0.0000  -7.042962  -3.075383  5.225508
100  2 0.0000 -12.526469  -5.469815  7.838262
101  2 0.0000 -18.009976  -7.864246 10.451016
102  2 0.0000 -23.493484 -10.258677 13.063770
103  2 0.0000   8.362006   6.502341  0.000000
104  2 0.0000   2.878499   4.107910  2.612754
105  2 0.0000  -2.605008   1.713479  5.225508
106  2 0.0000  -8.088515  -0.680952  7.838262
107  2 0.0000 -13.572023  -3.075383 10.451016
108  2 0.0000 -19.055530  -5.469815 13.063770
109  2 0.0000  12.799960  11.291204  0.000000
110  2 0.0000   7.316453   8.896772  2.612754
111  2 0.0000   1.832945   6.502341  5.225508
112  2 0.0000  -3.650562   4.107910  7.838262
113  2 0.0000  -9.134069   1.713479 10.451016
114  2 0.0000 -14.617576  -0.680952 13.063770
115  2 0.0000  17.237914  16.080066  0.000000
116  2 0.0000  11.754406  13.685635  2.612754
117  2 0.0000   6.270899  11.291204  5.225508
118  2 0.0000   0.787392   8.896772  7.838262
119  2 0.0000  -4.696115   6.502341 10.451016
120  2 0.0000 -10.179623   4.107910 13.063770
121  2 0.0000  10.453113   1.713479 -0.000000
122  2 0.0000   4.969606  -0.680952  2.612754
123  2 0.0000  -0.513901  -3.075383  5.225508
124  2 0.0000  -5.997408  -5.469815  7.838262
125  2 0.0000 -11.480916  -7.864246 10.451016
126  2 0.0000 -16.964423 -10.258677 13.063770
127  2 0.0000  14.891067   6.502341 -0.000000
128  2 0.0000   9.407560   4.107910  2.612754
129  2 0.0000   3.924053   1.713479  5.225508
130  2 0.0000  -1.559455  -0.680952  7.838262
131  2 0.0000  -7.042962  -3.075383 10.451016
132  2 0.0000 -12.526469  -5.469815 13.063770
133  2 0.0000  19.329021  11.291204  0.000000
134  2 0.0000  13.845514   8.896772  2.612754
135  2 0.0000   8.362006   6.502341  5.225508
136  2 0.0000   2.878499   4.107910  7.838262
137  2 0.0000  -2.605008   1.713479 10.451016
138  2 0.0000  -8.088515  -0.680952 13.063770
139  2 0.0000  -9.134069   1.713479 15.676523
140  2 0.0000  18.283467  13.685635  2.612754
141  2 0.0000  12.799960  11.291204  5.225508
142  2 0.0000   7.316453   8.896772  7.838262
143  2 0.0000   1.832945   6.502341 10.451016
144  2 0.0000  -3.650562   4.107910 13.063770
145  2 0.0000  16.982174   1.713479  0.000000
146  2 0.0000  11.498667  -0.680952  2.612754
147  2 0.0000   6.015160  -3.075383  5.225508
148  2 0.0000   0.531653  -5.469815  7.838262
149  2 0.0000  -4.951855  -7.864246 10.451016
150  2 0.0000 -10.435362 -10.258677 13.063770
151  2 0.0000  21.420128   6.502341 -0.000000
152  2 0.0000  15.936621   4.107910  2.612754
153  2 0.0000  10.453113   1.713479  5.225508
154  2 0.0000   4.969606  -0.680952  7.838262
155  2 0.0000  -0.513901  -3.075383 10.451016
156  2 0.0000  -5.997408  -5.469815 13.063770
157  2 0.0000  -7.042962  -3.075383 15.676523
158  2 0.0000  20.374574   8.896772  2.612754
159  2 0.0000  14.891067   6.502341  5.225508
160  2 0.0000   9.407560   4.107910  7.838262
161  2 0.0000   3.924053   1.713479 10.451016
162  2 0.0000  -1.559455  -0.680952 13.063770
163  2 0.0000  30.296035  16.080066  0.000000
164  2 0.0000  24.812528  13.685635  2.612754
165  2 0.0000  19.329021  11.291204  5.225508
166  2 0.0000  13.845514   8.896772  7.838262
167  2 0.0000   8.362006   6.502341 10.451016
168  2 0.0000   2.878499   4.107910 13.063770
169  2 0.0000  23.511235   1.713479 -0.000000
170  2 0.0000  18.027728  -0.680952  2.612754
171  2 0.0000  12.544221  -3.075383  5.225508
172  2 0.0000   7.060713  -5.469815  7.838262
173  2 0.0000   1.577206  -7.864246 10.451016
174  2 0.0000  -3.906301 -10.258677 13.063770
175  2 0.0000  27.949189   6.502341  0.000000
176  2 0.0000  22.465682   4.107910  2.612754
177  2 0.0000  16.982174   1.713479  5.225508
178  2 0.0000  11.498667  -0.680952  7.838262
179  2 0.0000   6.015160  -3.075383 10.451016
180  2 0.0000   0.531653  -5.469815 13.063770
181  2 0.0000  32.387143  11.291204 -0.000000
182  2 0.0000  26.903635   8.896772  2.612754
183  2 0.0000  21.420128   6.502341  5.225508
184  2 0.0000  15.936621   4.107910  7.838262
185  2 0.0000  10.453113   1.713479 10.451016
186  2 0.0000   4.969606  -0.680952 13.063770
187  2 0.0000  36.825096  16.080066  0.000000
188  2 0.0000  31.341589  13.685635  2.612754
189  2 0.0000  25.858082  11.291204  5.225508
190  2 0.0000  20.374574   8.896772  7.838262
191  2 0.0000  14.891067   6.502341 10.451016
192  2 0.0000   9.407560   4.107910 13.063770
193  3 0.0000   0.061613   0.026904  0.000000
194  3 0.0000  -5.421895  -2.367527  2.612754
195  3 0.0000 -10.905402  -4.761959  5.225508
196  3 0.0000 -16.388909  -7.156390  7.838262
197  3 0.0000 -21.872416  -9.550821 10.451016
198  3 0.0000 -27.355924 -11.945252 13.063770
199  3 0.0000   4.499566   4.815766  0.000000
200  3 0.0000  -0.983941   2.421335  2.612754
201  3 0.0000  -6.467448   0.026904  5.225508
202  3 0.0000 -11.950955  -2.367527  7.838262
203  3 0.0000 -17.434463  -4.761959 10.451016
204  3 0.0000 -22.917970  -7.156390 13.063770
205  3 0.0000   8.937520   9.604629  0.000000
206  3 0.0000   3.454013   7.210197  2.612754
207  3 0.0000  -2.029494   4.815766  5.225508
208  3 0.0000  -7.513002   2.421335  7.838262
209  3 0.0000 -12.996509   0.026904 10.451016
210  3 0.0000 -18.480016  -2.367527 13.063770
211  3 0.0000  13.375474  14.393491  0.000000
212  3 0.0000   7.891966  11.999060  2.612754
213  3 0.0000   2.408459   9.604629  5.225508
214  3 0.0000  -3.075048   7.210197  7.838262
215  3 0.0000  -8.558555   4.815766 10.451016
216  3 0.0000 -14.042063   2.421335 13.063770
217  3 0.0000   6.590674   0.026904 -0.000000
218  3 0.0000   1.107166  -2.367527  2.612754
219  3 0.0000  -4.376341  -4.761959  5.225508
220  3 0.0000  -9.859848  -7.156390  7.838262
221  3 0.0000 -15.343356  -9.550821 10.451016
222  3 0.0000 -20.826863 -11.945252 13.063770
223  3 0.0000  11.028627   4.815766  0.000000
224  3 0.0000   5.545120   2.421335  2.612754
225  3 0.0000   0.061613   0.026904  5.225508
226  3 0.0000  -5.421895  -2.367527  7.838262
227  3 0.0000 -10.905402  -4.761959 10.451016
228  3 0.0000 -16.388909  -7.156390 13.063770
229  3 0.0000  15.466581   9.604629  0.000000
230  3 0.0000   9.983074   7.210197  2.612754
231  3 0.0000   4.499566   4.815766  5.225508
232  3 0.0000  -0.983941   2.421335  7.838262
233  3 0.0000  -6.467448   0.026904 10.451016
234  3 0.0000 -11.950955  -2.367527 13.063770
235  3 0.0000  19.904535  14.393491  0.000000
236  3 0.0000  14.421027  11.999060  2.612754
237  3 0.0000   8.937520   9.604629  5.225508
238  3 0.0000   3.454013   7.210197  7.838262
239  3 0.0000  -2.029494   4.815766 10.451016
240  3 0.0000  -7.513002   2.421335 13.063770
241  3 0.0000  13.119734   0.026904 -0.000000
242  3 0.0000   7.636227  -2.367527  2.612754
243  3 0.0000   2.152720  -4.761959  5.225508
244  3 0.0000  -3.330787  -7.156390  7.838262
245  3 0.0000  -8.814295  -9.550821 10.451016
246  3 0.0000 -14.297802 -11.945252 13.063770
247  3 0.0000  17.557688   4.815766  0.000000
248  3 0.0000  12.074181   2.421335  2.612754
249  3 0.0000   6.590674   0.026904  5.225508
250  3 0.0000   1.107166  -2.367527  7.838262
251  3 0.0000  -4.376341  -4.761959 10.451016
252  3 0.0000  -9.859848  -7.156390 13.063770
253  3 0.0000  21.995642   9.604629 -0.000000
254  3 0.0000  16.512134   7.210197  2.612754
255  3 0.0000  11.028627   4.815766  5.225508
256  3 0.0000   5.545120   2.421335  7.838262
257  3 0.0000   0.061613   0.026904 10.451016
258  3 0.0000  -5.421895  -2.367527 13.063770
259  3 0.0000  26.433595  14.393491  0.000000
260  3 0.0000  20.950088  11.999060  2.612754
261  3 0.0000  15.466581   9.604629  5.225508
262  3 0.0000   9.983074   7.210197  7.838262
263  3 0.0000   4.499566   4.815766 10.451016
264  3 0.0000  -0.983941   2.421335 13.063770
265  3 0.0000  19.648795   0.026904 -0.000000
266  3 0.0000  14.165288  -2.367527  2.612754
267  3 0.0000   8.681781  -4.761959  5.225508
268  3 0.0000   3.198273  -7.156390  7.838262
269  3 0.0000  -2.285234  -9.550821 10.451016
270  3 0.0000  -7.768741 -11.945252 13.063770
271  3 0.0000  24.086749   4.815766 -0.000000
272  3 0.0000  18.603242   2.421335  2.612754
273  3 0.0000  13.119734   0.026904  5.225508
274  3 0.0000   7.636227  -2.367527  7.838262
275  3 0.0000   2.152720  -4.761959 10.451016
276  3 0.0000  -3.330787  -7.156390 13.063770
277  3 0.0000  28.524703   9.604629  0.000000
278  3 0.0000  23.041195   7.210197  2.612754
279  3 0.0000  17.557688   4.815766  5.225508
280  3 0.0000  12.074181   2.421335  7.838262
281  3 0.0000   6.590674   0.026904 10.451016
282  3 0.0000   1.107166  -2.367527 13.063770
283  3 0.0000  32.962656  14.393491  0.000000
284  3 0.0000  27.479149  11.999060  2.612754
285  3 0.0000  21.995642   9.604629  5.225508
286  3 0.0000  16.512134   7.210197  7.838262
287  3 0.0000  11.028627   4.815766 10.451016
288  3 0.0000   5.545120   2.421335 13.063770
289  4 0.0000   9.133790   3.988366  0.000000
290  4 0.0000   3.650283   1.593935  2.612754
291  4 0.0000  -1.833224  -0.800497  5.225508
292  4 0.0000  -7.316731  -3.194928  7.838262
293  4 0.0000 -12.800239  -5.589359 10.451016
294  4 0.0000 -18.283746  -7.983790 13.063770
295  4 0.0000  13.571744   8.777228  0.000000
296  4 0.0000   8.088237   6.382797  2.612754
297  4 0.0000   2.604729   3.988366  5.225508
298  4 0.0000  -2.878778   1.593935  7.838262
299  4 0.0000  -8.362285  -0.800497 10.451016
300  4 0.0000 -13.845792  -3.194928 13.063770
301  4 0.0000  18.009698  13.566090  0.000000
302  4 0.0000  12.526190  11.171659  2.612754
303  4 0.0000   7.042683   8.777228  5.225508
304  4 0.0000   1.559176   6.382797  7.838262
305  4 0.0000  -3.924331   3.988366 10.451016
306  4 0.0000  -9.407839   1.593935 13.063770
307  4 0.0000  22.447651  18.354953  0.000000
308  4 0.0000  16.964144  15.960522  2.612754
309  4 0.0000  11.480637  13.566090  5.225508
310  4 0.0000   5.997130  11.171659  7.838262
311  4 0.0000   0.513622   8.777228 10.451016
312  4 0.0000  -4.969885   6.382797 13.063770
313  4 0.0000  15.662851   3.988366 -0.000000
314  4 0.0000  10.179344   1.593935  2.612754
315  4 0.0000   4.695837  -0.800497  5.225508
316  4 0.0000  -0.787671  -3.194928  7.838262
317  4 0.0000  -6.271178  -5.589359 10.451016
318  4 0.0000 -11.754685  -7.983790 13.063770
319  4 0.0000 -12.800239  -5.589359 15.676523
320  4 0.0000  14.617298   6.382797  2.612754
321  4 0.0000   9.133790   3.988366  5.225508
322  4 0.0000   3.650283   1.593935  7.838262
323  4 0.0000  -1.833224  -0.800497 10.451016
324  4 0.0000  -7.316731  -3.194928 13.063770
325  4 0.0000  24.538759  13.566090  0.000000
326  4 0.0000  19.055251  11.171659  2.612754
327  4 0.0000  13.571744   8.777228  5.225508
328  4 0.0000   8.088237   6.382797  7.838262
329  4 0.0000   2.604729   3.988366 10.451016
330  4 0.0000  -2.878778   1.593935 13.063770
331  4 0.0000  28.976712  18.354953  0.000000
332  4 0.0000  23.493205  15.960522  2.612754
333  4 0.0000  18.009698  13.566090  5.225508
334  4 0.0000  12.526190  11.171659  7.838262
335  4 0.0000   7.042683   8.777228 10.451016
336  4 0.0000   1.559176   6.382797 13.063770
337  4 0.0000  22.191912   3.988366 -0.000000
338  4 0.0000  16.708405   1.593935  2.612754
339  4 0.0000  11.224897  -0.800497  5.225508
340  4 0.0000   5.741390  -3.194928  7.838262
341  4 0.0000   0.257883  -5.589359 10.451016
342  4 0.0000  -5.225624  -7.983790 13.063770
343  4 0.0000  26.629866   8.777228 -0.000000
344  4 0.0000  21.146358   6.382797  2.612754
345  4 0.0000  15.662851   3.988366  5.225508
346  4 0.0000  10.179344   1.593935  7.838262
347  4 0.0000   4.695837  -0.800497 10.451016
348  4 0.0000  -0.787671  -3.194928 13.063770
349  4 0.0000  31.067819  13.566090  0.000000
350  4 0.0000  25.584312  11.171659  2.612754
351  4 0.0000  20.100805   8.777228  5.225508
352  4 0.0000  14.617298   6.382797  7.838262
353  4 0.0000   9.133790   3.988366 10.451016
354  4 0.0000   3.650283   1.593935 13.063770
355  4 0.0000  35.505773  18.354953  0.000000
356  4 0.0000  30.022266  15.960522  2.612754
357  4 0.0000  24.538759  13.566090  5.225508
358  4 0.0000  19.055251  11.171659  7.838262
359  4 0.0000  13.571744   8.777228 10.451016
360  4 0.0000   8.088237   6.382797 13.063770
361  4 0.0000  28.720973   3.988366  0.000000
362  4 0.0000  23.237466   1.593935  2.612754
363  4 0.0000  17.753958  -0.800497  5.225508
364  4 0.0000  12.270451  -3.194928  7.838262
365  4 0.0000   6.786944  -5.589359 10.451016
366  4 0.0000   1.303437  -7.983790 13.063770
367  4 0.0000  33.158927   8.777228 -0.000000
368  4 0.0000  27.675419   6.382797  2.612754
369  4 0.0000  22.191912   3.988366  5.225508
370  4 0.0000  16.708405   1.593935  7.838262
371  4 0.0000  11.224897  -0.800497 10.451016
372  4 0.0000   5.741390  -3.194928 13.063770
373  4 0.0000  37.596880  13.566090  0.000000
374  4 0.0000  32.113373  11.171659  2.612754
375  4 0.0000  26.629866   8.777228  5.225508
376  4 0.0000  21.146358   6.382797  7.838262
377  4 0.0000  15.662851   3.988366 10.451016
378  4 0.0000  10.179344   1.593935 13.063770
379  4 0.0000  42.034834  18.354953  0.000000
380  4 0.0000  36.551327  15.960522  2.612754
381  4 0.0000  31.067819  13.566090  5.225508
382  4 0.0000  25.584312  11.171659  7.838262
383  4 0.0000  20.100805   8.777228 10.451016
384  4 0.0000  14.617298   6.382797 13.063770
385  4 0.0000   1.851835   0.808623  0.000000
386  4 0.0000  -3.631672  -1.585808  2.612754
387  4 0.0000  -9.115179  -3.980239  5.225508
388  4 0.0000 -14.598687  -6.374670  7.838262
389  4 0.0000 -20.082194  -8.769101 10.451016
390  4 0.0000 -25.565701 -11.163533 13.063770
391  4 0.0000   6.289789   5.597486  0.000000
392  4 0.0000   0.806282   3.203055  2.612754
393  4 0.0000  -4.677226   0.808623  5.225508
394  4 0.0000 -10.160733  -1.585808  7.838262
395  4 0.0000 -15.644240  -3.980239 10.451016
396  4 0.0000 -21.127747  -6.374670 13.063770
397  4 0.0000  10.727743  10.386348  0.000000
398  4 0.0000   5.244235   7.991917  2.612754
399  4 0.0000  -0.239272   5.597486  5.225508
400  4 0.0000  -5.722779   3.203055  7.838262
401  4 0.0000 -11.206286   0.808623 10.451016
402  4 0.0000 -16.689794  -1.585808 13.063770
403  4 0.0000  15.165696  15.175210  0.000000
404  4 0.0000   9.682189  12.780779  2.612754
405  4 0.0000   4.198682  10.386348  5.225508
406  4 0.0000  -1.284826   7.991917  7.838262
407  4 0.0000  -6.768333   5.597486 10.451016
408  4 0.0000 -12.251840   3.203055 13.063770
409  4 0.0000   8.380896   0.808623  0.000000
410  4 0.0000   2.897389  -1.585808  2.612754
411  4 0.0000  -2.586118  -3.980239  5.225508
412  4 0.0000  -8.069626  -6.374670  7.838262
413  4 0.0000 -13.553133  -8.769101 10.451016
414  4 0.0000 -19.036640 -11.163533 13.063770
415  4 0.0000  12.818850   5.597486  0.000000
416  4 0.0000   7.335343   3.203055  2.612754
417  4 0.0000   1.851835   0.808623  5.225508
418  4 0.0000  -3.631672  -1.585808  7.838262
419  4 0.0000  -9.115179  -3.980239 10.451016
420  4 0.0000 -14.598687  -6.374670 13.063770
421  4 0.0000  17.256803  10.386348  0.000000
422  4 0.0000  11.773296   7.991917  2.612754
423  4 0.0000   6.289789   5.597486  5.225508
424  4 0.0000   0.806282   3.203055  7.838262
425  4 0.0000  -4.677226   0.808623 10.451016
426  4 0.0000 -10.160733  -1.585808 13.063770
427  4 0.0000 -11.206286   0.808623 15.676523
428  4 0.0000  16.211250  12.780779  2.612754
429  4 0.0000  10.727743  10.386348  5.225508
430  4 0.0000   5.244235   7.991917  7.838262
431  4 0.0000  -0.239272   5.597486 10.451016
432  4 0.0000  -5.722779   3.203055 13.063770
433  4 0.0000  14.909957   0.808623  0.000000
434  4 0.0000   9.426450  -1.585808  2.612754
435  4 0.0000   3.942942  -3.980239  5.225508
436  4 0.0000  -1.540565  -6.374670  7.838262
437  4 0.0000  -7.024072  -8.769101 10.451016
438  4 0.0000 -12.507579 -11.163533 13.063770
439  4 0.0000  19.347911   5.597486  0.000000
440  4 0.0000  13.864403   3.203055  2.612754
441  4 0.0000   8.380896   0.808623  5.225508
442  4 0.0000   2.897389  -1.585808  7.838262
443  4 0.0000  -2.586118  -3.980239 10.451016
444  4 0.0000  -8.069626  -6.374670 13.063770
445  4 0.0000  -9.115179  -3.980239 15.676523
446  4 0.0000  18.302357   7.991917  2.612754
447  4 0.0000  12.818850   5.597486  5.225508
448  4 0.0000   7.335343   3.203055  7.838262
449  4 0.0000   1.851835   0.808623 10.451016
450  4 0.0000  -3.631672  -1.585808 13.063770
451  4 0.0000  28.223818  15.175210  0.000000
452  4 0.0000  22.740311  12.780779  2.612754
453  4 0.0000  17.256803  10.386348  5.225508
454  4 0.0000  11.773296   7.991917  7.838262
455  4 0.0000   6.289789   5.597486 10.451016
456  4 0.0000   0.806282   3.203055 13.063770
457  4 0.0000  21.439018   0.808623 -0.000000
458  4 0.0000  15.955511  -1.585808  2.612754
459  4 0.0000  10.472003  -3.980239  5.225508
460  4 0.0000   4.988496  -6.374670  7.838262
461  4 0.0000  -0.495011  -8.769101 10.451016
462  4 0.0000  -5.978519 -11.163533 13.063770
463  4 0.0000  25.876971   5.597486 -0.000000
464  4 0.0000  20.393464   3.203055  2.612754
465  4 0.0000  14.909957   0.808623  5.225508
466  4 0.0000   9.426450  -1.585808  7.838262
467  4 0.0000   3.942942  -3.980239 10.451016
468  4 0.0000  -1.540565  -6.374670 13.063770
469  4 0.0000  30.314925  10.386348 -0.000000
470  4 0.0000  24.831418   7.991917  2.612754
471  4 0.0000  19.347911   5.597486  5.225508
472  4 0.0000  13.864403   3.203055  7.838262
473  4 0.0000   8.380896   0.808623 10.451016
474  4 0.0000   2.897389  -1.585808 13.063770
475  4 0.0000  34.752879  15.175210  0.000000
476  4 0.0000  29.269372  12.780779  2.612754
477  4 0.0000  23.785864  10.386348  5.225508
478  4 0.0000  18.302357   7.991917  7.838262
479  4 0.0000  12.818850   5.597486 10.451016
480  4 0.0000   7.335343   3.203055 13.063770
481  4 0.0000   4.916906   3.572510  1.306377
482  4 0.0000  -0.566601   1.178079  3.919131
483  4 0.0000  -6.050108  -1.216352  6.531885
484  4 0.0000 -11.533616  -3.610783  9.144639
485  4 0.0000 -17.017123  -6.005214 11.757393
486  4 0.0000 -22.500630  -8.399645 14.370146
487  4 0.0000   9.354860   8.361373  1.306377
488  4 0.0000   3.871353   5.966942  3.919131
489  4 0.0000  -1.612155   3.572510  6.531885
490  4 0.0000  -7.095662   1.178079  9.144639
491  4 0.0000 -12.579169  -1.216352 11.757393
492  4 0.0000 -18.062676  -3.610783 14.370146
493  4 0.0000  13.792814  13.150235  1.306377
494  4 0.0000   8.309306  10.755804  3.919131
495  4 0.0000   2.825799   8.361373  6.531885
496  4 0.0000  -2.657708   5.966942  9.144639
497  4 0.0000  -8.141215   3.572510 11.757393
498  4 0.0000 -13.624723   1.178079 14.370146
499  4 0.0000  18.230767  17.939098  1.306377
500  4 0.0000  12.747260  15.544666  3.919131
501  4 0.0000   7.263753  13.150235  6.531885
502  4 0.0000   1.780246  10.755804  9.144639
503  4 0.0000  -3.703262   8.361373 11.757393
504  4 0.0000  -9.186769   5.966942 14.370146
505  4 0.0000  11.445967   3.572510  1.306377
506  4 0.0000   5.962460   1.178079  3.919131
507  4 0.0000   0.478953  -1.216352  6.531885
508  4 0.0000  -5.004555  -3.610783  9.144639
509  4 0.0000 -10.488062  -6.005214 11.757393
510  4 0.0000 -15.971569  -8.399645 14.370146
511  4 0.0000  15.883921   8.361373  1.306377
512  4 0.0000  10.400414   5.966942  3.919131
513  4 0.0000   4.916906   3.572510  6.531885
514  4 0.0000  -0.566601   1.178079  9.144639
515  4 0.0000  -6.050108  -1.216352 11.757393
516  4 0.0000 -11.533616  -3.610783 14.370146
517  4 0.0000  20.321875  13.150235  1.306377
518  4 0.0000  14.838367  10.755804  3.919131
519  4 0.0000   9.354860   8.361373  6.531885
520  4 0.0000   3.871353   5.966942  9.144639
521  4 0.0000  -1.612155   3.572510 11.757393
522  4 0.0000  -7.095662   1.178079 14.370146
523  4 0.0000  24.759828  17.939098  1.306377
524  4 0.0000  19.276321  15.544666  3.919131
525  4 0.0000  13.792814  13.150235  6.531885
526  4 0.0000   8.309306  10.755804  9.144639
527  4 0.0000   2.825799   8.361373 11.757393
528  4 0.0000  -2.657708   5.966942 14.370146
529  4 0.0000  17.975028   3.572510  1.306377
530  4 0.0000  12.491521   1.178079  3.919131
531  4 0.0000   7.008013  -1.216352  6.531885
532  4 0.0000   1.524506  -3.610783  9.144639
533  4 0.0000  -3.959001  -6.005214 11.757393
534  4 0.0000  -9.442508  -8.399645 14.370146
535  4 0.0000  22.412982   8.361373  1.306377
536  4 0.0000  16.929474   5.966942  3.919131
537  4 0.0000  11.445967   3.572510  6.531885
538  4 0.0000   5.962460   1.178079  9.144639
539  4 0.0000   0.478953  -1.216352 11.757393
540  4 0.0000  -5.004555  -3.610783 14.370146
541  4 0.0000  26.850935  13.150235  1.306377
542  4 0.0000  21.367428  10.755804  3.919131
543  4 0.0000  15.883921   8.361373  6.531885
544  4 0.0000  10.400414   5.966942  9.144639
545  4 0.0000   4.916906   3.572510 11.757393
546  4 0.0000  -0.566601   1.178079 14.370146
547  4 0.0000  31.288889  17.939098  1.306377
548  4 0.0000  25.805382  15.544666  3.919131
549  4 0.0000  20.321875  13.150235  6.531885
550  4 0.0000  14.838367  10.755804  9.144639
551  4 0.0000   9.354860   8.361373 11.757393
552  4 0.0000   3.871353   5.966942 14.370146
553  4 0.0000  24.504089   3.572510  1.306377
554  4 0.0000  19.020582   1.178079  3.919131
555  4 0.0000  13.537074  -1.216352  6.531885
556  4 0.0000   8.053567  -3.610783  9.144639
557  4 0.0000   2.570060  -6.005214 11.757393
558  4 0.0000  -2.913448  -8.399645 14.370146
559  4 0.0000  28.942043   8.361373  1.306377
560  4 0.0000  23.458535   5.966942  3.919131
561  4 0.0000  17.975028   3.572510  6.531885
562  4 0.0000  12.491521   1.178079  9.144639
563  4 0.0000   7.008013  -1.216352 11.757393
564  4 0.0000   1.524506  -3.610783 14.370146
565  4 0.0000  33.379996  13.150235  1.306377
566  4 0.0000  27.896489  10.755804  3.919131
567  4 0.0000  22.412982   8.361373  6.531885
568  4 0.0000  16.929474   5.966942  9.144639
569  4 0.0000  11.445967   3.572510 11.757393
570  4 0.0000   5.962460   1.178079 14.370146
571  4 0.0000  37.817950  17.939098  1.306377
572  4 0.0000  32.334443  15.544666  3.919131
573  4 0.0000  26.850935  13.150235  6.531885
574  4 0.0000  21.367428  10.755804  9.144639
575  4 0.0000  15.883921   8.361373 11.757393
576  4 0.0000  10.400414   5.966942 14.370146
577  4 0.0000   5.962460   1.178079  1.306377
578  4 0.0000   0.478953  -1.216352  3.919131
579  4 0.0000  -5.004555  -3.610783  6.531885
580  4 0.0000 -10.488062  -6.005214  9.144639
581  4 0.0000 -15.971569  -8.399645 11.757393
582  4 0.0000 -21.455076 -10.794077 14.370146
583  4 0.0000  10.400414   5.966942  1.306377
584  4 0.0000   4.916906   3.572510  3.919131
585  4 0.0000  -0.566601   1.178079  6.531885
586  4 0.0000  -6.050108  -1.216352  9.144639
587  4 0.0000 -11.533616  -3.610783 11.757393
588  4 0.0000 -17.017123  -6.005214 14.370146
589  4 0.0000  14.838367  10.755804  1.306377
590  4 0.0000   9.354860   8.361373  3.919131
591  4 0.0000   3.871353   5.966942  6.531885
592  4 0.0000  -1.612155   3.572510  9.144639
593  4 0.0000  -7.095662   1.178079 11.757393
594  4 0.0000 -12.579169  -1.216352 14.370146
595  4 0.0000  19.276321  15.544666  1.306377
596  4 0.0000  13.792814  13.150235  3.919131
597  4 0.0000   8.309306  10.755804  6.531885
598  4 0.0000   2.825799   8.361373  9.144639
599  4 0.0000  -2.657708   5.966942 11.757393
600  4 0.0000  -8.141215   3.572510 14.370146
601  4 0.0000  12.491521   1.178079  1.306377
602  4 0.0000   7.008013  -1.216352  3.919131
603  4 0.0000   1.524506  -3.610783  6.531885
604  4 0.0000  -3.959001  -6.005214  9.144639
605  4 0.0000  -9.442508  -8.399645 11.757393
606  4 0.0000 -14.926016 -10.794077 14.370146
607  4 0.0000  16.929474   5.966942  1.306377
608  4 0.0000  11.445967   3.572510  3.919131
609  4 0.0000   5.962460   1.178079  6.531885
610  4 0.0000   0.478953  -1.216352  9.144639
611  4 0.0000  -5.004555  -3.610783 11.757393
612  4 0.0000 -10.488062  -6.005214 14.370146
613  4 0.0000  21.367428  10.755804  1.306377
614  4 0.0000  15.883921   8.361373  3.919131
615  4 0.0000  10.400414   5.966942  6.531885
616  4 0.0000   4.916906   3.572510  9.144639
617  4 0.0000  -0.566601   1.178079 11.757393
618  4 0.0000  -6.050108  -1.216352 14.370146
619  4 0.0000  25.805382  15.544666  1.306377
620  4 0.0000  20.321875  13.150235  3.919131
621  4 0.0000  14.838367  10.755804  6.531885
622  4 0.0000   9.354860   8.361373  9.144639
623  4 0.0000   3.871353   5.966942 11.757393
624  4 0.0000  -1.612155   3.572510 14.370146
625  4 0.0000  19.020582   1.178079  1.306377
626  4 0.0000  13.537074  -1.216352  3.919131
627  4 0.0000   8.053567  -3.610783  6.531885
628  4 0.0000   2.570060  -6.005214  9.144639
629  4 0.0000  -2.913448  -8.399645 11.757393
630  4 0.0000  -8.396955 -10.794077 14.370146
631  4 0.0000  23.458535   5.966942  1.306377
632  4 0.0000  17.975028   3.572510  3.919131
633  4 0.0000  12.491521   1.178079  6.531885
634  4 0.0000   7.008013  -1.216352  9.144639
635  4 0.0000   1.524506  -3.610783 11.757393
636  4 0.0000  -3.959001  -6.005214 14.370146
637  4 0.0000  27.896489  10.755804  1.306377
638  4 0.0000  22.412982   8.361373  3.919131
639  4 0.0000  16.929474   5.966942  6.531885
640  4 0.0000  11.445967   3.572510  9.144639
641  4 0.0000   5.962460   1.178079 11.757393
642  4 0.0000   0.478953  -1.216352 14.370146
643  4 0.0000  32.334443  15.544666  1.306377
644  4 0.0000  26.850935  13.150235  3.919131
645  4 0.0000  21.367428  10.755804  6.531885
646  4 0.0000  15.883921   8.361373  9.144639