Generated by pymatgen.io.lammps.data.LammpsData

1728  atoms

   4  atom types

0.000000 20.725896  xlo xhi
0.000000 21.619136  ylo yhi
0.000000 56.128092  zlo zhi

Masses

1   54.938045
2  127.600000
3   95.940000
4   15.999400

Atoms

1     1 0.0000  2.590737  2.702392  4.926063
2     1 0.0000  2.590737  2.702392 14.280745
3     1 0.0000  2.590737  2.702392 23.635427
4     1 0.0000  2.590737  2.702392 32.990109
5     1 0.0000  2.590737  2.702392 42.344791
6     1 0.0000  2.590737  2.702392 51.699473
7     1 0.0000  2.590737  8.107176  4.926063
8     1 0.0000  2.590737  8.107176 14.280745
9     1 0.0000  2.590737  8.107176 23.635427
10    1 0.0000  2.590737  8.107176 32.990109
11    1 0.0000  2.590737  8.107176 42.344791
12    1 0.0000  2.590737  8.107176 51.699473
13    1 0.0000  2.590737 13.511960  4.926063
14    1 0.0000  2.590737 13.511960 14.280745
15    1 0.0000  2.590737 13.511960 23.635427
16    1 0.0000  2.590737 13.511960 32.990109
17    1 0.0000  2.590737 13.511960 42.344791
18    1 0.0000  2.590737 13.511960 51.699473
19    1 0.0000  2.590737 18.916744  4.926063
20    1 0.0000  2.590737 18.916744 14.280745
21    1 0.0000  2.590737 18.916744 23.635427
22    1 0.0000  2.590737 18.916744 32.990109
23    1 0.0000  2.590737 18.916744 42.344791
24    1 0.0000  2.590737 18.916744 51.699473
25    1 0.0000  7.772211  2.702392  4.926063
26    1 0.0000  7.772211  2.702392 14.280745
27    1 0.0000  7.772211  2.702392 23.635427
28    1 0.0000  7.772211  2.702392 32.990109
29    1 0.0000  7.772211  2.702392 42.344791
30    1 0.0000  7.772211  2.702392 51.699473
31    1 0.0000  7.772211  8.107176  4.926063
32    1 0.0000  7.772211  8.107176 14.280745
33    1 0.0000  7.772211  8.107176 23.635427
34    1 0.0000  7.772211  8.107176 32.990109
35    1 0.0000  7.772211  8.107176 42.344791
36    1 0.0000  7.772211  8.107176 51.699473
37    1 0.0000  7.772211 13.511960  4.926063
38    1 0.0000  7.772211 13.511960 14.280745
39    1 0.0000  7.772211 13.511960 23.635427
40    1 0.0000  7.772211 13.511960 32.990109
41    1 0.0000  7.772211 13.511960 42.344791
42    1 0.0000  7.772211 13.511960 51.699473
43    1 0.0000  7.772211 18.916744  4.926063
44    1 0.0000  7.772211 18.916744 14.280745
45    1 0.0000  7.772211 18.916744 23.635427
46    1 0.0000  7.772211 18.916744 32.990109
47    1 0.0000  7.772211 18.916744 42.344791
48    1 0.0000  7.772211 18.916744 51.699473
49    1 0.0000 12.953685  2.702392  4.926063
50    1 0.0000 12.953685  2.702392 14.280745
51    1 0.0000 12.953685  2.702392 23.635427
52    1 0.0000 12.953685  2.702392 32.990109
53    1 0.0000 12.953685  2.702392 42.344791
54    1 0.0000 12.953685  2.702392 51.699473
55    1 0.0000 12.953685  8.107176  4.926063
56    1 0.0000 12.953685  8.107176 14.280745
57    1 0.0000 12.953685  8.107176 23.635427
58    1 0.0000 12.953685  8.107176 32.990109
59    1 0.0000 12.953685  8.107176 42.344791
60    1 0.0000 12.953685  8.107176 51.699473
61    1 0.0000 12.953685 13.511960  4.926063
62    1 0.0000 12.953685 13.511960 14.280745
63    1 0.0000 12.953685 13.511960 23.635427
64    1 0.0000 12.953685 13.511960 32.990109
65    1 0.0000 12.953685 13.511960 42.344791
66    1 0.0000 12.953685 13.511960 51.699473
67    1 0.0000 12.953685 18.916744  4.926063
68    1 0.0000 12.953685 18.916744 14.280745
69    1 0.0000 12.953685 18.916744 23.635427
70    1 0.0000 12.953685 18.916744 32.990109
71    1 0.0000 12.953685 18.916744 42.344791
72    1 0.0000 12.953685 18.916744 51.699473
73    1 0.0000 18.135159  2.702392  4.926063
74    1 0.0000 18.135159  2.702392 14.280745
75    1 0.0000 18.135159  2.702392 23.635427
76    1 0.0000 18.135159  2.702392 32.990109
77    1 0.0000 18.135159  2.702392 42.344791
78    1 0.0000 18.135159  2.702392 51.699473
79    1 0.0000 18.135159  8.107176  4.926063
80    1 0.0000 18.135159  8.107176 14.280745
81    1 0.0000 18.135159  8.107176 23.635427
82    1 0.0000 18.135159  8.107176 32.990109
83    1 0.0000 18.135159  8.107176 42.344791
84    1 0.0000 18.135159  8.107176 51.699473
85    1 0.0000 18.135159 13.511960  4.926063
86    1 0.0000 18.135159 13.511960 14.280745
87    1 0.0000 18.135159 13.511960 23.635427
88    1 0.0000 18.135159 13.511960 32.990109
89    1 0.0000 18.135159 13.511960 42.344791
90    1 0.0000 18.135159 13.511960 51.699473
91    1 0.0000 18.135159 18.916744  4.926063
92    1 0.0000 18.135159 18.916744 14.280745
93    1 0.0000 18.135159 18.916744 23.635427
94    1 0.0000 18.135159 18.916744 32.990109
95    1 0.0000 18.135159 18.916744 42.344791
96    1 0.0000 18.135159 18.916744 51.699473
97    1 0.0000  0.000000  0.000000  4.428619
98    1 0.0000  0.000000  0.000000 13.783301
99    1 0.0000  0.000000  0.000000 23.137983
100   1 0.0000  0.000000  0.000000 32.492665
101   1 0.0000  0.000000  0.000000 41.847347
102   1 0.0000  0.000000  0.000000 51.202029
103   1 0.0000  0.000000  5.404784  4.428619
104   1 0.0000  0.000000  5.404784 13.783301
105   1 0.0000  0.000000  5.404784 23.137983
106   1 0.0000  0.000000  5.404784 32.492665
107   1 0.0000  0.000000  5.404784 41.847347
108   1 0.0000  0.000000  5.404784 51.202029
109   1 0.0000  0.000000 10.809568  4.428619
110   1 0.0000  0.000000 10.809568 13.783301
111   1 0.0000  0.000000 10.809568 23.137983
112   1 0.0000  0.000000 10.809568 32.492665
113   1 0.0000  0.000000 10.809568 41.847347
114   1 0.0000  0.000000 10.809568 51.202029
115   1 0.0000  0.000000 16.214352  4.428619
116   1 0.0000  0.000000 16.214352 13.783301
117   1 0.0000  0.000000 16.214352 23.137983
118   1 0.0000  0.000000 16.214352 32.492665
119   1 0.0000  0.000000 16.214352 41.847347
120   1 0.0000  0.000000 16.214352 51.202029
121   1 0.0000  5.181474  0.000000  4.428619
122   1 0.0000  5.181474  0.000000 13.783301
123   1 0.0000  5.181474  0.000000 23.137983
124   1 0.0000  5.181474  0.000000 32.492665
125   1 0.0000  5.181474  0.000000 41.847347
126   1 0.0000  5.181474  0.000000 51.202029
127   1 0.0000  5.181474  5.404784  4.428619
128   1 0.0000  5.181474  5.404784 13.783301
129   1 0.0000  5.181474  5.404784 23.137983
130   1 0.0000  5.181474  5.404784 32.492665
131   1 0.0000  5.181474  5.404784 41.847347
132   1 0.0000  5.181474  5.404784 51.202029
133   1 0.0000  5.181474 10.809568  4.428619
134   1 0.0000  5.181474 10.809568 13.783301
135   1 0.0000  5.181474 10.809568 23.137983
136   1 0.0000  5.181474 10.809568 32.492665
137   1 0.0000  5.181474 10.809568 41.847347
138   1 0.0000  5.181474 10.809568 51.202029
139   1 0.0000  5.181474 16.214352  4.428619
140   1 0.0000  5.181474 16.214352 13.783301
141   1 0.0000  5.181474 16.214352 23.137983
142   1 0.0000  5.181474 16.214352 32.492665
143   1 0.0000  5.181474 16.214352 41.847347
144   1 0.0000  5.181474 16.214352 51.202029
145   1 0.0000 10.362948  0.000000  4.428619
146   1 0.0000 10.362948  0.000000 13.783301
147   1 0.0000 10.362948  0.000000 23.137983
148   1 0.0000 10.362948  0.000000 32.492665
149   1 0.0000 10.362948  0.000000 41.847347
150   1 0.0000 10.362948  0.000000 51.202029
151   1 0.0000 10.362948  5.404784  4.428619
152   1 0.0000 10.362948  5.404784 13.783301
153   1 0.0000 10.362948  5.404784 23.137983
154   1 0.0000 10.362948  5.404784 32.492665
155   1 0.0000 10.362948  5.404784 41.847347
156   1 0.0000 10.362948  5.404784 51.202029
157   1 0.0000 10.362948 10.809568  4.428619
158   1 0.0000 10.362948 10.809568 13.783301
159   1 0.0000 10.362948 10.809568 23.137983
160   1 0.0000 10.362948 10.809568 32.492665
161   1 0.0000 10.362948 10.809568 41.847347
162   1 0.0000 10.362948 10.809568 51.202029
163   1 0.0000 10.362948 16.214352  4.428619
164   1 0.0000 10.362948 16.214352 13.783301
165   1 0.0000 10.362948 16.214352 23.137983
166   1 0.0000 10.362948 16.214352 32.492665
167   1 0.0000 10.362948 16.214352 41.847347
168   1 0.0000 10.362948 16.214352 51.202029
169   1 0.0000 15.544422  0.000000  4.428619
170   1 0.0000 15.544422  0.000000 13.783301
171   1 0.0000 15.544422  0.000000 23.137983
172   1 0.0000 15.544422  0.000000 32.492665
173   1 0.0000 15.544422  0.000000 41.847347
174   1 0.0000 15.544422  0.000000 51.202029
175   1 0.0000 15.544422  5.404784  4.428619
176   1 0.0000 15.544422  5.404784 13.783301
177   1 0.0000 15.544422  5.404784 23.137983
178   1 0.0000 15.544422  5.404784 32.492665
179   1 0.0000 15.544422  5.404784 41.847347
180   1 0.0000 15.544422  5.404784 51.202029
181   1 0.0000 15.544422 10.809568  4.428619
182   1 0.0000 15.544422 10.809568 13.783301
183   1 0.0000 15.544422 10.809568 23.137983
184   1 0.0000 15.544422 10.809568 32.492665
185   1 0.0000 15.544422 10.809568 41.847347
186   1 0.0000 15.544422 10.809568 51.202029
187   1 0.0000 15.544422 16.214352  4.428619
188   1 0.0000 15.544422 16.214352 13.783301
189   1 0.0000 15.544422 16.214352 23.137983
190   1 0.0000 15.544422 16.214352 32.492665
191   1 0.0000 15.544422 16.214352 41.847347
192   1 0.0000 15.544422 16.214352 51.202029
193   2 0.0000  0.000000  2.702392  2.403180
194   2 0.0000  0.000000  2.702392 11.757862
195   2 0.0000  0.000000  2.702392 21.112544
196   2 0.0000  0.000000  2.702392 30.467226
197   2 0.0000  0.000000  2.702392 39.821908
198   2 0.0000  0.000000  2.702392 49.176590
199   2 0.0000  0.000000  8.107176  2.403180
200   2 0.0000  0.000000  8.107176 11.757862
201   2 0.0000  0.000000  8.107176 21.112544
202   2 0.0000  0.000000  8.107176 30.467226
203   2 0.0000  0.000000  8.107176 39.821908
204   2 0.0000  0.000000  8.107176 49.176590
205   2 0.0000  0.000000 13.511960  2.403180
206   2 0.0000  0.000000 13.511960 11.757862
207   2 0.0000  0.000000 13.511960 21.112544
208   2 0.0000  0.000000 13.511960 30.467226
209   2 0.0000  0.000000 13.511960 39.821908
210   2 0.0000  0.000000 13.511960 49.176590
211   2 0.0000  0.000000 18.916744  2.403180
212   2 0.0000  0.000000 18.916744 11.757862
213   2 0.0000  0.000000 18.916744 21.112544
214   2 0.0000  0.000000 18.916744 30.467226
215   2 0.0000  0.000000 18.916744 39.821908
216   2 0.0000  0.000000 18.916744 49.176590
217   2 0.0000  5.181474  2.702392  2.403180
218   2 0.0000  5.181474  2.702392 11.757862
219   2 0.0000  5.181474  2.702392 21.112544
220   2 0.0000  5.181474  2.702392 30.467226
221   2 0.0000  5.181474  2.702392 39.821908
222   2 0.0000  5.181474  2.702392 49.176590
223   2 0.0000  5.181474  8.107176  2.403180
224   2 0.0000  5.181474  8.107176 11.757862
225   2 0.0000  5.181474  8.107176 21.112544
226   2 0.0000  5.181474  8.107176 30.467226
227   2 0.0000  5.181474  8.107176 39.821908
228   2 0.0000  5.181474  8.107176 49.176590
229   2 0.0000  5.181474 13.511960  2.403180
230   2 0.0000  5.181474 13.511960 11.757862
231   2 0.0000  5.181474 13.511960 21.112544
232   2 0.0000  5.181474 13.511960 30.467226
233   2 0.0000  5.181474 13.511960 39.821908
234   2 0.0000  5.181474 13.511960 49.176590
235   2 0.0000  5.181474 18.916744  2.403180
236   2 0.0000  5.181474 18.916744 11.757862
237   2 0.0000  5.181474 18.916744 21.112544
238   2 0.0000  5.181474 18.916744 30.467226
239   2 0.0000  5.181474 18.916744 39.821908
240   2 0.0000  5.181474 18.916744 49.176590
241   2 0.0000 10.362948  2.702392  2.403180
242   2 0.0000 10.362948  2.702392 11.757862
243   2 0.0000 10.362948  2.702392 21.112544
244   2 0.0000 10.362948  2.702392 30.467226
245   2 0.0000 10.362948  2.702392 39.821908
246   2 0.0000 10.362948  2.702392 49.176590
247   2 0.0000 10.362948  8.107176  2.403180
248   2 0.0000 10.362948  8.107176 11.757862
249   2 0.0000 10.362948  8.107176 21.112544
250   2 0.0000 10.362948  8.107176 30.467226
251   2 0.0000 10.362948  8.107176 39.821908
252   2 0.0000 10.362948  8.107176 49.176590
253   2 0.0000 10.362948 13.511960  2.403180
254   2 0.0000 10.362948 13.511960 11.757862
255   2 0.0000 10.362948 13.511960 21.112544
256   2 0.0000 10.362948 13.511960 30.467226
257   2 0.0000 10.362948 13.511960 39.821908
258   2 0.0000 10.362948 13.511960 49.176590
259   2 0.0000 10.362948 18.916744  2.403180
260   2 0.0000 10.362948 18.916744 11.757862
261   2 0.0000 10.362948 18.916744 21.112544
262   2 0.0000 10.362948 18.916744 30.467226
263   2 0.0000 10.362948 18.916744 39.821908
264   2 0.0000 10.362948 18.916744 49.176590
265   2 0.0000 15.544422  2.702392  2.403180
266   2 0.0000 15.544422  2.702392 11.757862
267   2 0.0000 15.544422  2.702392 21.112544
268   2 0.0000 15.544422  2.702392 30.467226
269   2 0.0000 15.544422  2.702392 39.821908
270   2 0.0000 15.544422  2.702392 49.176590
271   2 0.0000 15.544422  8.107176  2.403180
272   2 0.0000 15.544422  8.107176 11.757862
273   2 0.0000 15.544422  8.107176 21.112544
274   2 0.0000 15.544422  8.107176 30.467226
275   2 0.0000 15.544422  8.107176 39.821908
276   2 0.0000 15.544422  8.107176 49.176590
277   2 0.0000 15.544422 13.511960  2.403180
278   2 0.0000 15.544422 13.511960 11.757862
279   2 0.0000 15.544422 13.511960 21.112544
280   2 0.0000 15.544422 13.511960 30.467226
281   2 0.0000 15.544422 13.511960 39.821908
282   2 0.0000 15.544422 13.511960 49.176590
283   2 0.0000 15.544422 18.916744  2.403180
284   2 0.0000 15.544422 18.916744 11.757862
285   2 0.0000 15.544422 18.916744 21.112544
286   2 0.0000 15.544422 18.916744 30.467226
287   2 0.0000 15.544422 18.916744 39.821908
288   2 0.0000 15.544422 18.916744 49.176590
289   2 0.0000  2.590737  0.000000  6.951502
290   2 0.0000  2.590737  0.000000 16.306184
291   2 0.0000  2.590737  0.000000 25.660866
292   2 0.0000  2.590737  0.000000 35.015548
293   2 0.0000  2.590737  0.000000 44.370230
294   2 0.0000  2.590737  0.000000 53.724912
295   2 0.0000  2.590737  5.404784  6.951502
296   2 0.0000  2.590737  5.404784 16.306184
297   2 0.0000  2.590737  5.404784 25.660866
298   2 0.0000  2.590737  5.404784 35.015548
299   2 0.0000  2.590737  5.404784 44.370230
300   2 0.0000  2.590737  5.404784 53.724912
301   2 0.0000  2.590737 10.809568  6.951502
302   2 0.0000  2.590737 10.809568 16.306184
303   2 0.0000  2.590737 10.809568 25.660866
304   2 0.0000  2.590737 10.809568 35.015548
305   2 0.0000  2.590737 10.809568 44.370230
306   2 0.0000  2.590737 10.809568 53.724912
307   2 0.0000  2.590737 16.214352  6.951502
308   2 0.0000  2.590737 16.214352 16.306184
309   2 0.0000  2.590737 16.214352 25.660866
310   2 0.0000  2.590737 16.214352 35.015548
311   2 0.0000  2.590737 16.214352 44.370230
312   2 0.0000  2.590737 16.214352 53.724912
313   2 0.0000  7.772211  0.000000  6.951502
314   2 0.0000  7.772211  0.000000 16.306184
315   2 0.0000  7.772211  0.000000 25.660866
316   2 0.0000  7.772211  0.000000 35.015548
317   2 0.0000  7.772211  0.000000 44.370230
318   2 0.0000  7.772211  0.000000 53.724912
319   2 0.0000  7.772211  5.404784  6.951502
320   2 0.0000  7.772211  5.404784 16.306184
321   2 0.0000  7.772211  5.404784 25.660866
322   2 0.0000  7.772211  5.404784 35.015548
323   2 0.0000  7.772211  5.404784 44.370230
324   2 0.0000  7.772211  5.404784 53.724912
325   2 0.0000  7.772211 10.809568  6.951502
326   2 0.0000  7.772211 10.809568 16.306184
327   2 0.0000  7.772211 10.809568 25.660866
328   2 0.0000  7.772211 10.809568 35.015548
329   2 0.0000  7.772211 10.809568 44.370230
330   2 0.0000  7.772211 10.809568 53.724912
331   2 0.0000  7.772211 16.214352  6.951502
332   2 0.0000  7.772211 16.214352 16.306184
333   2 0.0000  7.772211 16.214352 25.660866
334   2 0.0000  7.772211 16.214352 35.015548
335   2 0.0000  7.772211 16.214352 44.370230
336   2 0.0000  7.772211 16.214352 53.724912
337   2 0.0000 12.953685  0.000000  6.951502
338   2 0.0000 12.953685  0.000000 16.306184
339   2 0.0000 12.953685  0.000000 25.660866
340   2 0.0000 12.953685  0.000000 35.015548
341   2 0.0000 12.953685  0.000000 44.370230
342   2 0.0000 12.953685  0.000000 53.724912
343   2 0.0000 12.953685  5.404784  6.951502
344   2 0.0000 12.953685  5.404784 16.306184
345   2 0.0000 12.953685  5.404784 25.660866
346   2 0.0000 12.953685  5.404784 35.015548
347   2 0.0000 12.953685  5.404784 44.370230
348   2 0.0000 12.953685  5.404784 53.724912
349   2 0.0000 12.953685 10.809568  6.951502
350   2 0.0000 12.953685 10.809568 16.306184
351   2 0.0000 12.953685 10.809568 25.660866
352   2 0.0000 12.953685 10.809568 35.015548
353   2 0.0000 12.953685 10.809568 44.370230
354   2 0.0000 12.953685 10.809568 53.724912
355   2 0.0000 12.953685 16.214352  6.951502
356   2 0.0000 12.953685 16.214352 16.306184
357   2 0.0000 12.953685 16.214352 25.660866
358   2 0.0000 12.953685 16.214352 35.015548
359   2 0.0000 12.953685 16.214352 44.370230
360   2 0.0000 12.953685 16.214352 53.724912
361   2 0.0000 18.135159  0.000000  6.951502
362   2 0.0000 18.135159  0.000000 16.306184
363   2 0.0000 18.135159  0.000000 25.660866
364   2 0.0000 18.135159  0.000000 35.015548
365   2 0.0000 18.135159  0.000000 44.370230
366   2 0.0000 18.135159  0.000000 53.724912
367   2 0.0000 18.135159  5.404784  6.951502
368   2 0.0000 18.135159  5.404784 16.306184
369   2 0.0000 18.135159  5.404784 25.660866
370   2 0.0000 18.135159  5.404784 35.015548
371   2 0.0000 18.135159  5.404784 44.370230
372   2 0.0000 18.135159  5.404784 53.724912
373   2 0.0000 18.135159 10.809568  6.951502
374   2 0.0000 18.135159 10.809568 16.306184
375   2 0.0000 18.135159 10.809568 25.660866
376   2 0.0000 18.135159 10.809568 35.015548
377   2 0.0000 18.135159 10.809568 44.370230
378   2 0.0000 18.135159 10.809568 53.724912
379   2 0.0000 18.135159 16.214352  6.951502
380   2 0.0000 18.135159 16.214352 16.306184
381   2 0.0000 18.135159 16.214352 25.660866
382   2 0.0000 18.135159 16.214352 35.015548
383   2 0.0000 18.135159 16.214352 44.370230
384   2 0.0000 18.135159 16.214352 53.724912
385   3 0.0000  2.590737  0.000000  1.814256
386   3 0.0000  2.590737  0.000000 11.168938
387   3 0.0000  2.590737  0.000000 20.523620
388   3 0.0000  2.590737  0.000000 29.878302
389   3 0.0000  2.590737  0.000000 39.232984
390   3 0.0000  2.590737  0.000000 48.587666
391   3 0.0000  2.590737  5.404784  1.814256
392   3 0.0000  2.590737  5.404784 11.168938
393   3 0.0000  2.590737  5.404784 20.523620
394   3 0.0000  2.590737  5.404784 29.878302
395   3 0.0000  2.590737  5.404784 39.232984
396   3 0.0000  2.590737  5.404784 48.587666
397   3 0.0000  2.590737 10.809568  1.814256
398   3 0.0000  2.590737 10.809568 11.168938
399   3 0.0000  2.590737 10.809568 20.523620
400   3 0.0000  2.590737 10.809568 29.878302
401   3 0.0000  2.590737 10.809568 39.232984
402   3 0.0000  2.590737 10.809568 48.587666
403   3 0.0000  2.590737 16.214352  1.814256
404   3 0.0000  2.590737 16.214352 11.168938
405   3 0.0000  2.590737 16.214352 20.523620
406   3 0.0000  2.590737 16.214352 29.878302
407   3 0.0000  2.590737 16.214352 39.232984
408   3 0.0000  2.590737 16.214352 48.587666
409   3 0.0000  7.772211  0.000000  1.814256
410   3 0.0000  7.772211  0.000000 11.168938
411   3 0.0000  7.772211  0.000000 20.523620
412   3 0.0000  7.772211  0.000000 29.878302
413   3 0.0000  7.772211  0.000000 39.232984
414   3 0.0000  7.772211  0.000000 48.587666
415   3 0.0000  7.772211  5.404784  1.814256
416   3 0.0000  7.772211  5.404784 11.168938
417   3 0.0000  7.772211  5.404784 20.523620
418   3 0.0000  7.772211  5.404784 29.878302
419   3 0.0000  7.772211  5.404784 39.232984
420   3 0.0000  7.772211  5.404784 48.587666
421   3 0.0000  7.772211 10.809568  1.814256
422   3 0.0000  7.772211 10.809568 11.168938
423   3 0.0000  7.772211 10.809568 20.523620
424   3 0.0000  7.772211 10.809568 29.878302
425   3 0.0000  7.772211 10.809568 39.232984
426   3 0.0000  7.772211 10.809568 48.587666
427   3 0.0000  7.772211 16.214352  1.814256
428   3 0.0000  7.772211 16.214352 11.168938
429   3 0.0000  7.772211 16.214352 20.523620
430   3 0.0000  7.772211 16.214352 29.878302
431   3 0.0000  7.772211 16.214352 39.232984
432   3 0.0000  7.772211 16.214352 48.587666
433   3 0.0000 12.953685  0.000000  1.814256
434   3 0.0000 12.953685  0.000000 11.168938
435   3 0.0000 12.953685  0.000000 20.523620
436   3 0.0000 12.953685  0.000000 29.878302
437   3 0.0000 12.953685  0.000000 39.232984
438   3 0.0000 12.953685  0.000000 48.587666
439   3 0.0000 12.953685  5.404784  1.814256
440   3 0.0000 12.953685  5.404784 11.168938
441   3 0.0000 12.953685  5.404784 20.523620
442   3 0.0000 12.953685  5.404784 29.878302
443   3 0.0000 12.953685  5.404784 39.232984
444   3 0.0000 12.953685  5.404784 48.587666
445   3 0.0000 12.953685 10.809568  1.814256
446   3 0.0000 12.953685 10.809568 11.168938
447   3 0.0000 12.953685 10.809568 20.523620
448   3 0.0000 12.953685 10.809568 29.878302
449   3 0.0000 12.953685 10.809568 39.232984
450   3 0.0000 12.953685 10.809568 48.587666
451   3 0.0000 12.953685 16.214352  1.814256
452   3 0.0000 12.953685 16.214352 11.168938
453   3 0.0000 12.953685 16.214352 20.523620
454   3 0.0000 12.953685 16.214352 29.878302
455   3 0.0000 12.953685 16.214352 39.232984
456   3 0.0000 12.953685 16.214352 48.587666
457   3 0.0000 18.135159  0.000000  1.814256
458   3 0.0000 18.135159  0.000000 11.168938
459   3 0.0000 18.135159  0.000000 20.523620
460   3 0.0000 18.135159  0.000000 29.878302
461   3 0.0000 18.135159  0.000000 39.232984
462   3 0.0000 18.135159  0.000000 48.587666
463   3 0.0000 18.135159  5.404784  1.814256
464   3 0.0000 18.135159  5.404784 11.168938
465   3 0.0000 18.135159  5.404784 20.523620
466   3 0.0000 18.135159  5.404784 29.878302
467   3 0.0000 18.135159  5.404784 39.232984
468   3 0.0000 18.135159  5.404784 48.587666
469   3 0.0000 18.135159 10.809568  1.814256
470   3 0.0000 18.135159 10.809568 11.168938
471   3 0.0000 18.135159 10.809568 20.523620
472   3 0.0000 18.135159 10.809568 29.878302
473   3 0.0000 18.135159 10.809568 39.232984
474   3 0.0000 18.135159 10.809568 48.587666
475   3 0.0000 18.135159 16.214352  1.814256
476   3 0.0000 18.135159 16.214352 11.168938
477   3 0.0000 18.135159 16.214352 20.523620
478   3 0.0000 18.135159 16.214352 29.878302
479   3 0.0000 18.135159 16.214352 39.232984
480   3 0.0000 18.135159 16.214352 48.587666
481   3 0.0000  0.000000  2.702392  7.540426
482   3 0.0000  0.000000  2.702392 16.895108
483   3 0.0000  0.000000  2.702392 26.249790
484   3 0.0000  0.000000  2.702392 35.604472
485   3 0.0000  0.000000  2.702392 44.959154
486   3 0.0000  0.000000  2.702392 54.313836
487   3 0.0000  0.000000  8.107176  7.540426
488   3 0.0000  0.000000  8.107176 16.895108
489   3 0.0000  0.000000  8.107176 26.249790
490   3 0.0000  0.000000  8.107176 35.604472
491   3 0.0000  0.000000  8.107176 44.959154
492   3 0.0000  0.000000  8.107176 54.313836
493   3 0.0000  0.000000 13.511960  7.540426
494   3 0.0000  0.000000 13.511960 16.895108
495   3 0.0000  0.000000 13.511960 26.249790
496   3 0.0000  0.000000 13.511960 35.604472
497   3 0.0000  0.000000 13.511960 44.959154
498   3 0.0000  0.000000 13.511960 54.313836
499   3 0.0000  0.000000 18.916744  7.540426
500   3 0.0000  0.000000 18.916744 16.895108
501   3 0.0000  0.000000 18.916744 26.249790
502   3 0.0000  0.000000 18.916744 35.604472
503   3 0.0000  0.000000 18.916744 44.959154
504   3 0.0000  0.000000 18.916744 54.313836
505   3 0.0000  5.181474  2.702392  7.540426
506   3 0.0000  5.181474  2.702392 16.895108
507   3 0.0000  5.181474  2.702392 26.249790
508   3 0.0000  5.181474  2.702392 35.604472
509   3 0.0000  5.181474  2.702392 44.959154
510   3 0.0000  5.181474  2.702392 54.313836
511   3 0.0000  5.181474  8.107176  7.540426
512   3 0.0000  5.181474  8.107176 16.895108
513   3 0.0000  5.181474  8.107176 26.249790
514   3 0.0000  5.181474  8.107176 35.604472
515   3 0.0000  5.181474  8.107176 44.959154
516   3 0.0000  5.181474  8.107176 54.313836
517   3 0.0000  5.181474 13.511960  7.540426
518   3 0.0000  5.181474 13.511960 16.895108
519   3 0.0000  5.181474 13.511960 26.249790
520   3 0.0000  5.181474 13.511960 35.604472
521   3 0.0000  5.181474 13.511960 44.959154
522   3 0.0000  5.181474 13.511960 54.313836
523   3 0.0000  5.181474 18.916744  7.540426
524   3 0.0000  5.181474 18.916744 16.895108
525   3 0.0000  5.181474 18.916744 26.249790
526   3 0.0000  5.181474 18.916744 35.604472
527   3 0.0000  5.181474 18.916744 44.959154
528   3 0.0000  5.181474 18.916744 54.313836
529   3 0.0000 10.362948  2.702392  7.540426
530   3 0.0000 10.362948  2.702392 16.895108
531   3 0.0000 10.362948  2.702392 26.249790
532   3 0.0000 10.362948  2.702392 35.604472
533   3 0.0000 10.362948  2.702392 44.959154
534   3 0.0000 10.362948  2.702392 54.313836
535   3 0.0000 10.362948  8.107176  7.540426
536   3 0.0000 10.362948  8.107176 16.895108
537   3 0.0000 10.362948  8.107176 26.249790
538   3 0.0000 10.362948  8.107176 35.604472
539   3 0.0000 10.362948  8.107176 44.959154
540   3 0.0000 10.362948  8.107176 54.313836
541   3 0.0000 10.362948 13.511960  7.540426
542   3 0.0000 10.362948 13.511960 16.895108
543   3 0.0000 10.362948 13.511960 26.249790
544   3 0.0000 10.362948 13.511960 35.604472
545   3 0.0000 10.362948 13.511960 44.959154
546   3 0.0000 10.362948 13.511960 54.313836
547   3 0.0000 10.362948 18.916744  7.540426
548   3 0.0000 10.362948 18.916744 16.895108
549   3 0.0000 10.362948 18.916744 26.249790
550   3 0.0000 10.362948 18.916744 35.604472
551   3 0.0000 10.362948 18.916744 44.959154
552   3 0.0000 10.362948 18.916744 54.313836
553   3 0.0000 15.544422  2.702392  7.540426
554   3 0.0000 15.544422  2.702392 16.895108
555   3 0.0000 15.544422  2.702392 26.249790
556   3 0.0000 15.544422  2.702392 35.604472
557   3 0.0000 15.544422  2.702392 44.959154
558   3 0.0000 15.544422  2.702392 54.313836
559   3 0.0000 15.544422  8.107176  7.540426
560   3 0.0000 15.544422  8.107176 16.895108
561   3 0.0000 15.544422  8.107176 26.249790
562   3 0.0000 15.544422  8.107176 35.604472
563   3 0.0000 15.544422  8.107176 44.959154
564   3 0.0000 15.544422  8.107176 54.313836
565   3 0.0000 15.544422 13.511960  7.540426
566   3 0.0000 15.544422 13.511960 16.895108
567   3 0.0000 15.544422 13.511960 26.249790
568   3 0.0000 15.544422 13.511960 35.604472
569   3 0.0000 15.544422 13.511960 44.959154
570   3 0.0000 15.544422 13.511960 54.313836
571   3 0.0000 15.544422 18.916744  7.540426
572   3 0.0000 15.544422 18.916744 16.895108
573   3 0.0000 15.544422 18.916744 26.249790
574   3 0.0000 15.544422 18.916744 35.604472
575   3 0.0000 15.544422 18.916744 44.959154
576   3 0.0000 15.544422 18.916744 54.313836
577   4 0.0000  3.696225  0.930693  5.693952
578   4 0.0000  3.696225  0.930693 15.048634
579   4 0.0000  3.696225  0.930693 24.403316
580   4 0.0000  3.696225  0.930693 33.757998
581   4 0.0000  3.696225  0.930693 43.112680
582   4 0.0000  3.696225  0.930693 52.467362
583   4 0.0000  3.696225  6.335477  5.693952
584   4 0.0000  3.696225  6.335477 15.048634
585   4 0.0000  3.696225  6.335477 24.403316
586   4 0.0000  3.696225  6.335477 33.757998
587   4 0.0000  3.696225  6.335477 43.112680
588   4 0.0000  3.696225  6.335477 52.467362
589   4 0.0000  3.696225 11.740261  5.693952
590   4 0.0000  3.696225 11.740261 15.048634
591   4 0.0000  3.696225 11.740261 24.403316
592   4 0.0000  3.696225 11.740261 33.757998
593   4 0.0000  3.696225 11.740261 43.112680
594   4 0.0000  3.696225 11.740261 52.467362
595   4 0.0000  3.696225 17.145045  5.693952
596   4 0.0000  3.696225 17.145045 15.048634
597   4 0.0000  3.696225 17.145045 24.403316
598   4 0.0000  3.696225 17.145045 33.757998
599   4 0.0000  3.696225 17.145045 43.112680
600   4 0.0000  3.696225 17.145045 52.467362
601   4 0.0000  8.877699  0.930693  5.693952
602   4 0.0000  8.877699  0.930693 15.048634
603   4 0.0000  8.877699  0.930693 24.403316
604   4 0.0000  8.877699  0.930693 33.757998
605   4 0.0000  8.877699  0.930693 43.112680
606   4 0.0000  8.877699  0.930693 52.467362
607   4 0.0000  8.877699  6.335477  5.693952
608   4 0.0000  8.877699  6.335477 15.048634
609   4 0.0000  8.877699  6.335477 24.403316
610   4 0.0000  8.877699  6.335477 33.757998
611   4 0.0000  8.877699  6.335477 43.112680
612   4 0.0000  8.877699  6.335477 52.467362
613   4 0.0000  8.877699 11.740261  5.693952
614   4 0.0000  8.877699 11.740261 15.048634
615   4 0.0000  8.877699 11.740261 24.403316
616   4 0.0000  8.877699 11.740261 33.757998
617   4 0.0000  8.877699 11.740261 43.112680
618   4 0.0000  8.877699 11.740261 52.467362
619   4 0.0000  8.877699 17.145045  5.693952
620   4 0.0000  8.877699 17.145045 15.048634
621   4 0.0000  8.877699 17.145045 24.403316
622   4 0.0000  8.877699 17.145045 33.757998
623   4 0.0000  8.877699 17.145045 43.112680
624   4 0.0000  8.877699 17.145045 52.467362
625   4 0.0000 14.059173  0.930693  5.693952
626   4 0.0000 14.059173  0.930693 15.048634
627   4 0.0000 14.059173  0.930693 24.403316
628   4 0.0000 14.059173  0.930693 33.757998
629   4 0.0000 14.059173  0.930693 43.112680
630   4 0.0000 14.059173  0.930693 52.467362
631   4 0.0000 14.059173  6.335477  5.693952
632   4 0.0000 14.059173  6.335477 15.048634
633   4 0.0000 14.059173  6.335477 24.403316
634   4 0.0000 14.059173  6.335477 33.757998
635   4 0.0000 14.059173  6.335477 43.112680
636   4 0.0000 14.059173  6.335477 52.467362
637   4 0.0000 14.059173 11.740261  5.693952
638   4 0.0000 14.059173 11.740261 15.048634
639   4 0.0000 14.059173 11.740261 24.403316
640   4 0.0000 14.059173 11.740261 33.757998
641   4 0.0000 14.059173 11.740261 43.112680
642   4 0.0000 14.059173 11.740261 52.467362
643   4 0.0000 14.059173 17.145045  5.693952
644   4 0.0000 14.059173 17.145045 15.048634
645   4 0.0000 14.059173 17.145045 24.403316
646   4 0.0000 14.059173 17.145045 33.757998
647   4 0.0000 14.059173 17.145045 43.112680
648   4 0.0000 14.059173 17.145045 52.467362
649   4 0.0000 19.240647  0.930693  5.693952
650   4 0.0000 19.240647  0.930693 15.048634
651   4 0.0000 19.240647  0.930693 24.403316
652   4 0.0000 19.240647  0.930693 33.757998
653   4 0.0000 19.240647  0.930693 43.112680
654   4 0.0000 19.240647  0.930693 52.467362
655   4 0.0000 19.240647  6.335477  5.693952
656   4 0.0000 19.240647  6.335477 15.048634
657   4 0.0000 19.240647  6.335477 24.403316
658   4 0.0000 19.240647  6.335477 33.757998
659   4 0.0000 19.240647  6.335477 43.112680
660   4 0.0000 19.240647  6.335477 52.467362
661   4 0.0000 19.240647 11.740261  5.693952