Generated by pymatgen.io.lammps.data.LammpsData

288  atoms

  4  atom types

0.000000 10.362948  xlo xhi
0.000000 10.809568  ylo yhi
0.000000 37.418728  zlo zhi

Masses

1   54.938045
2  127.600000
3   95.940000
4   15.999400

Atoms

1    1 0.0000 2.590737 2.702392  4.926063
2    1 0.0000 2.590737 2.702392 14.280745
3    1 0.0000 2.590737 2.702392 23.635427
4    1 0.0000 2.590737 2.702392 32.990109
5    1 0.0000 2.590737 8.107176  4.926063
6    1 0.0000 2.590737 8.107176 14.280745
7    1 0.0000 2.590737 8.107176 23.635427
8    1 0.0000 2.590737 8.107176 32.990109
9    1 0.0000 7.772211 2.702392  4.926063
10   1 0.0000 7.772211 2.702392 14.280745
11   1 0.0000 7.772211 2.702392 23.635427
12   1 0.0000 7.772211 2.702392 32.990109
13   1 0.0000 7.772211 8.107176  4.926063
14   1 0.0000 7.772211 8.107176 14.280745
15   1 0.0000 7.772211 8.107176 23.635427
16   1 0.0000 7.772211 8.107176 32.990109
17   1 0.0000 0.000000 0.000000  4.428619
18   1 0.0000 0.000000 0.000000 13.783301
19   1 0.0000 0.000000 0.000000 23.137983
20   1 0.0000 0.000000 0.000000 32.492665
21   1 0.0000 0.000000 5.404784  4.428619
22   1 0.0000 0.000000 5.404784 13.783301
23   1 0.0000 0.000000 5.404784 23.137983
24   1 0.0000 0.000000 5.404784 32.492665
25   1 0.0000 5.181474 0.000000  4.428619
26   1 0.0000 5.181474 0.000000 13.783301
27   1 0.0000 5.181474 0.000000 23.137983
28   1 0.0000 5.181474 0.000000 32.492665
29   1 0.0000 5.181474 5.404784  4.428619
30   1 0.0000 5.181474 5.404784 13.783301
31   1 0.0000 5.181474 5.404784 23.137983
32   1 0.0000 5.181474 5.404784 32.492665
33   2 0.0000 0.000000 2.702392  2.403180
34   2 0.0000 0.000000 2.702392 11.757862
35   2 0.0000 0.000000 2.702392 21.112544
36   2 0.0000 0.000000 2.702392 30.467226
37   2 0.0000 0.000000 8.107176  2.403180
38   2 0.0000 0.000000 8.107176 11.757862
39   2 0.0000 0.000000 8.107176 21.112544
40   2 0.0000 0.000000 8.107176 30.467226
41   2 0.0000 5.181474 2.702392  2.403180
42   2 0.0000 5.181474 2.702392 11.757862
43   2 0.0000 5.181474 2.702392 21.112544
44   2 0.0000 5.181474 2.702392 30.467226
45   2 0.0000 5.181474 8.107176  2.403180
46   2 0.0000 5.181474 8.107176 11.757862
47   2 0.0000 5.181474 8.107176 21.112544
48   2 0.0000 5.181474 8.107176 30.467226
49   2 0.0000 2.590737 0.000000  6.951502
50   2 0.0000 2.590737 0.000000 16.306184
51   2 0.0000 2.590737 0.000000 25.660866
52   2 0.0000 2.590737 0.000000 35.015548
53   2 0.0000 2.590737 5.404784  6.951502
54   2 0.0000 2.590737 5.404784 16.306184
55   2 0.0000 2.590737 5.404784 25.660866
56   2 0.0000 2.590737 5.404784 35.015548
57   2 0.0000 7.772211 0.000000  6.951502
58   2 0.0000 7.772211 0.000000 16.306184
59   2 0.0000 7.772211 0.000000 25.660866
60   2 0.0000 7.772211 0.000000 35.015548
61   2 0.0000 7.772211 5.404784  6.951502
62   2 0.0000 7.772211 5.404784 16.306184
63   2 0.0000 7.772211 5.404784 25.660866
64   2 0.0000 7.772211 5.404784 35.015548
65   3 0.0000 2.590737 0.000000  1.814256
66   3 0.0000 2.590737 0.000000 11.168938
67   3 0.0000 2.590737 0.000000 20.523620
68   3 0.0000 2.590737 0.000000 29.878302
69   3 0.0000 2.590737 5.404784  1.814256
70   3 0.0000 2.590737 5.404784 11.168938
71   3 0.0000 2.590737 5.404784 20.523620
72   3 0.0000 2.590737 5.404784 29.878302
73   3 0.0000 7.772211 0.000000  1.814256
74   3 0.0000 7.772211 0.000000 11.168938
75   3 0.0000 7.772211 0.000000 20.523620
76   3 0.0000 7.772211 0.000000 29.878302
77   3 0.0000 7.772211 5.404784  1.814256
78   3 0.0000 7.772211 5.404784 11.168938
79   3 0.0000 7.772211 5.404784 20.523620
80   3 0.0000 7.772211 5.404784 29.878302
81   3 0.0000 0.000000 2.702392  7.540426
82   3 0.0000 0.000000 2.702392 16.895108
83   3 0.0000 0.000000 2.702392 26.249790
84   3 0.0000 0.000000 2.702392 35.604472
85   3 0.0000 0.000000 8.107176  7.540426
86   3 0.0000 0.000000 8.107176 16.895108
87   3 0.0000 0.000000 8.107176 26.249790
88   3 0.0000 0.000000 8.107176 35.604472
89   3 0.0000 5.181474 2.702392  7.540426
90   3 0.0000 5.181474 2.702392 16.895108
91   3 0.0000 5.181474 2.702392 26.249790
92   3 0.0000 5.181474 2.702392 35.604472
93   3 0.0000 5.181474 8.107176  7.540426
94   3 0.0000 5.181474 8.107176 16.895108
95   3 0.0000 5.181474 8.107176 26.249790
96   3 0.0000 5.181474 8.107176 35.604472
97   4 0.0000 3.696225 0.930693  5.693952
98   4 0.0000 3.696225 0.930693 15.048634
99   4 0.0000 3.696225 0.930693 24.403316
100  4 0.0000 3.696225 0.930693 33.757998
101  4 0.0000 3.696225 6.335477  5.693952
102  4 0.0000 3.696225 6.335477 15.048634
103  4 0.0000 3.696225 6.335477 24.403316
104  4 0.0000 3.696225 6.335477 33.757998
105  4 0.0000 8.877699 0.930693  5.693952
106  4 0.0000 8.877699 0.930693 15.048634
107  4 0.0000 8.877699 0.930693 24.403316
108  4 0.0000 8.877699 0.930693 33.757998
109  4 0.0000 8.877699 6.335477  5.693952
110  4 0.0000 8.877699 6.335477 15.048634
111  4 0.0000 8.877699 6.335477 24.403316
112  4 0.0000 8.877699 6.335477 33.757998
113  4 0.0000 1.105488 1.771699  3.660730
114  4 0.0000 1.105488 1.771699 13.015412
115  4 0.0000 1.105488 1.771699 22.370094
116  4 0.0000 1.105488 1.771699 31.724776
117  4 0.0000 1.105488 7.176483  3.660730
118  4 0.0000 1.105488 7.176483 13.015412
119  4 0.0000 1.105488 7.176483 22.370094
120  4 0.0000 1.105488 7.176483 31.724776
121  4 0.0000 6.286962 1.771699  3.660730
122  4 0.0000 6.286962 1.771699 13.015412
123  4 0.0000 6.286962 1.771699 22.370094
124  4 0.0000 6.286962 1.771699 31.724776
125  4 0.0000 6.286962 7.176483  3.660730
126  4 0.0000 6.286962 7.176483 13.015412
127  4 0.0000 6.286962 7.176483 22.370094
128  4 0.0000 6.286962 7.176483 31.724776
129  4 0.0000 4.075986 3.633085  3.660730
130  4 0.0000 4.075986 3.633085 13.015412
131  4 0.0000 4.075986 3.633085 22.370094
132  4 0.0000 4.075986 3.633085 31.724776
133  4 0.0000 4.075986 9.037869  3.660730
134  4 0.0000 4.075986 9.037869 13.015412
135  4 0.0000 4.075986 9.037869 22.370094
136  4 0.0000 4.075986 9.037869 31.724776
137  4 0.0000 9.257460 3.633085  3.660730
138  4 0.0000 9.257460 3.633085 13.015412
139  4 0.0000 9.257460 3.633085 22.370094
140  4 0.0000 9.257460 3.633085 31.724776
141  4 0.0000 9.257460 9.037869  3.660730
142  4 0.0000 9.257460 9.037869 13.015412
143  4 0.0000 9.257460 9.037869 22.370094
144  4 0.0000 9.257460 9.037869 31.724776
145  4 0.0000 1.485249 4.474091  5.693952
146  4 0.0000 1.485249 4.474091 15.048634
147  4 0.0000 1.485249 4.474091 24.403316
148  4 0.0000 1.485249 4.474091 33.757998
149  4 0.0000 1.485249 9.878875  5.693952
150  4 0.0000 1.485249 9.878875 15.048634
151  4 0.0000 1.485249 9.878875 24.403316
152  4 0.0000 1.485249 9.878875 33.757998
153  4 0.0000 6.666723 4.474091  5.693952
154  4 0.0000 6.666723 4.474091 15.048634
155  4 0.0000 6.666723 4.474091 24.403316
156  4 0.0000 6.666723 4.474091 33.757998
157  4 0.0000 6.666723 9.878875  5.693952
158  4 0.0000 6.666723 9.878875 15.048634
159  4 0.0000 6.666723 9.878875 24.403316
160  4 0.0000 6.666723 9.878875 33.757998
161  4 0.0000 3.910339 0.995858  2.747161
162  4 0.0000 3.910339 0.995858 12.101843
163  4 0.0000 3.910339 0.995858 21.456525
164  4 0.0000 3.910339 0.995858 30.811207
165  4 0.0000 3.910339 6.400642  2.747161
166  4 0.0000 3.910339 6.400642 12.101843
167  4 0.0000 3.910339 6.400642 21.456525
168  4 0.0000 3.910339 6.400642 30.811207
169  4 0.0000 9.091813 0.995858  2.747161
170  4 0.0000 9.091813 0.995858 12.101843
171  4 0.0000 9.091813 0.995858 21.456525
172  4 0.0000 9.091813 0.995858 30.811207
173  4 0.0000 9.091813 6.400642  2.747161
174  4 0.0000 9.091813 6.400642 12.101843
175  4 0.0000 9.091813 6.400642 21.456525
176  4 0.0000 9.091813 6.400642 30.811207
177  4 0.0000 1.319602 1.706534  6.607521
178  4 0.0000 1.319602 1.706534 15.962203
179  4 0.0000 1.319602 1.706534 25.316885
180  4 0.0000 1.319602 1.706534 34.671567
181  4 0.0000 1.319602 7.111318  6.607521
182  4 0.0000 1.319602 7.111318 15.962203
183  4 0.0000 1.319602 7.111318 25.316885
184  4 0.0000 1.319602 7.111318 34.671567
185  4 0.0000 6.501076 1.706534  6.607521
186  4 0.0000 6.501076 1.706534 15.962203
187  4 0.0000 6.501076 1.706534 25.316885
188  4 0.0000 6.501076 1.706534 34.671567
189  4 0.0000 6.501076 7.111318  6.607521
190  4 0.0000 6.501076 7.111318 15.962203
191  4 0.0000 6.501076 7.111318 25.316885
192  4 0.0000 6.501076 7.111318 34.671567
193  4 0.0000 1.271135 4.408926  2.747161
194  4 0.0000 1.271135 4.408926 12.101843
195  4 0.0000 1.271135 4.408926 21.456525
196  4 0.0000 1.271135 4.408926 30.811207
197  4 0.0000 1.271135 9.813710  2.747161
198  4 0.0000 1.271135 9.813710 12.101843
199  4 0.0000 1.271135 9.813710 21.456525
200  4 0.0000 1.271135 9.813710 30.811207
201  4 0.0000 6.452609 4.408926  2.747161
202  4 0.0000 6.452609 4.408926 12.101843
203  4 0.0000 6.452609 4.408926 21.456525
204  4 0.0000 6.452609 4.408926 30.811207
205  4 0.0000 6.452609 9.813710  2.747161
206  4 0.0000 6.452609 9.813710 12.101843
207  4 0.0000 6.452609 9.813710 21.456525
208  4 0.0000 6.452609 9.813710 30.811207
209  4 0.0000 3.861872 3.698250  6.607521
210  4 0.0000 3.861872 3.698250 15.962203
211  4 0.0000 3.861872 3.698250 25.316885
212  4 0.0000 3.861872 3.698250 34.671567
213  4 0.0000 3.861872 9.103034  6.607521
214  4 0.0000 3.861872 9.103034 15.962203
215  4 0.0000 3.861872 9.103034 25.316885
216  4 0.0000 3.861872 9.103034 34.671567
217  4 0.0000 9.043346 3.698250  6.607521
218  4 0.0000 9.043346 3.698250 15.962203
219  4 0.0000 9.043346 3.698250 25.316885
220  4 0.0000 9.043346 3.698250 34.671567
221  4 0.0000 9.043346 9.103034  6.607521
222  4 0.0000 9.043346 9.103034 15.962203
223  4 0.0000 9.043346 9.103034 25.316885
224  4 0.0000 9.043346 9.103034 34.671567
225  4 0.0000 0.830181 3.815610  8.585690
226  4 0.0000 0.830181 3.815610 17.940372
227  4 0.0000 0.830181 3.815610 27.295054
228  4 0.0000 0.830181 3.815610 36.649736
229  4 0.0000 0.830181 9.220394  8.585690
230  4 0.0000 0.830181 9.220394 17.940372
231  4 0.0000 0.830181 9.220394 27.295054
232  4 0.0000 0.830181 9.220394 36.649736
233  4 0.0000 6.011655 3.815610  8.585690
234  4 0.0000 6.011655 3.815610 17.940372
235  4 0.0000 6.011655 3.815610 27.295054
236  4 0.0000 6.011655 3.815610 36.649736
237  4 0.0000 6.011655 9.220394  8.585690
238  4 0.0000 6.011655 9.220394 17.940372
239  4 0.0000 6.011655 9.220394 27.295054
240  4 0.0000 6.011655 9.220394 36.649736
241  4 0.0000 3.420918 4.291566  0.768992
242  4 0.0000 3.420918 4.291566 10.123674
243  4 0.0000 3.420918 4.291566 19.478356
244  4 0.0000 3.420918 4.291566 28.833038
245  4 0.0000 3.420918 9.696350  0.768992
246  4 0.0000 3.420918 9.696350 10.123674
247  4 0.0000 3.420918 9.696350 19.478356
248  4 0.0000 3.420918 9.696350 28.833038
249  4 0.0000 8.602392 4.291566  0.768992
250  4 0.0000 8.602392 4.291566 10.123674
251  4 0.0000 8.602392 4.291566 19.478356
252  4 0.0000 8.602392 4.291566 28.833038
253  4 0.0000 8.602392 9.696350  0.768992
254  4 0.0000 8.602392 9.696350 10.123674
255  4 0.0000 8.602392 9.696350 19.478356
256  4 0.0000 8.602392 9.696350 28.833038
257  4 0.0000 1.760556 1.113218  0.768992
258  4 0.0000 1.760556 1.113218 10.123674
259  4 0.0000 1.760556 1.113218 19.478356
260  4 0.0000 1.760556 1.113218 28.833038
261  4 0.0000 1.760556 6.518002  0.768992
262  4 0.0000 1.760556 6.518002 10.123674
263  4 0.0000 1.760556 6.518002 19.478356
264  4 0.0000 1.760556 6.518002 28.833038
265  4 0.0000 6.942030 1.113218  0.768992
266  4 0.0000 6.942030 1.113218 10.123674
267  4 0.0000 6.942030 1.113218 19.478356
268  4 0.0000 6.942030 1.113218 28.833038
269  4 0.0000 6.942030 6.518002  0.768992
270  4 0.0000 6.942030 6.518002 10.123674
271  4 0.0000 6.942030 6.518002 19.478356
272  4 0.0000 6.942030 6.518002 28.833038
273  4 0.0000 4.351293 1.589174  8.585690
274  4 0.0000 4.351293 1.589174 17.940372
275  4 0.0000 4.351293 1.589174 27.295054
276  4 0.0000 4.351293 1.589174 36.649736
277  4 0.0000 4.351293 6.993958  8.585690
278  4 0.0000 4.351293 6.993958 17.940372
279  4 0.0000 4.351293 6.993958 27.295054
280  4 0.0000 4.351293 6.993958 36.649736
281  4 0.0000 9.532767 1.589174  8.585690
282  4 0.0000 9.532767 1.589174 17.940372
283  4 0.0000 9.532767 1.589174 27.295054
284  4 0.0000 9.532767 1.589174 36.649736
285  4 0.0000 9.532767 6.993958  8.585690
286  4 0.0000 9.532767 6.993958 17.940372
287  4 0.0000 9.532767 6.993958 27.295054
288  4 0.0000 9.532767 6.993958 36.649736

