Generated by pymatgen.io.lammps.data.LammpsData

64  atoms

 3  atom types

0.000000 10.817668  xlo xhi
0.000000 5.554554  ylo yhi
0.000000 9.853502  zlo zhi
9.282720 18.565439 5.130382  xy xz yz

Masses

1  22.989769
2  58.933195
3  15.999400

Atoms

1   1 0.0000  0.000000  0.000000  0.000000
2   1 0.0000  4.641360  1.282596  2.463375
3   1 0.0000  9.282719  2.565191  4.926751
4   1 0.0000 13.924079  3.847787  7.390126
5   1 0.0000  4.641360  2.777277 -0.000000
6   1 0.0000  9.282720  4.059873  2.463375
7   1 0.0000 13.924079  5.342468  4.926751
8   1 0.0000 18.565439  6.625064  7.390126
9   1 0.0000  5.408834 -0.000000 -0.000000
10  1 0.0000 10.050194  1.282596  2.463375
11  1 0.0000 14.691553  2.565191  4.926751
12  1 0.0000 19.332913  3.847787  7.390126
13  1 0.0000 10.050194  2.777277 -0.000000
14  1 0.0000 14.691554  4.059873  2.463375
15  1 0.0000 19.332913  5.342468  4.926751
16  1 0.0000 23.974273  6.625064  7.390126
17  2 0.0000  7.345777  2.029936  1.231688
18  2 0.0000 11.987137  3.312532  3.695063
19  2 0.0000 16.628496  4.595127  6.158439
20  2 0.0000 21.269856  5.877723  8.621814
21  2 0.0000 11.987137  4.807214  1.231688
22  2 0.0000 16.628497  6.089809  3.695063
23  2 0.0000 21.269856  7.372405  6.158439
24  2 0.0000 25.911216  8.655000  8.621814
25  2 0.0000 12.754611  2.029936  1.231688
26  2 0.0000 17.395970  3.312532  3.695063
27  2 0.0000 22.037330  4.595127  6.158439
28  2 0.0000 26.678690  5.877723  8.621814
29  2 0.0000 17.395971  4.807214  1.231688
30  2 0.0000 22.037330  6.089809  3.695063
31  2 0.0000 26.678690  7.372405  6.158439
32  2 0.0000 31.320050  8.655000  8.621814
33  3 0.0000  3.387769  0.936178  0.568037
34  3 0.0000  8.029128  2.218774  3.031412
35  3 0.0000 12.670488  3.501369  5.494788
36  3 0.0000 17.311848  4.783965  7.958163
37  3 0.0000  8.029129  3.713455  0.568037
38  3 0.0000 12.670488  4.996051  3.031412
39  3 0.0000 17.311848  6.278646  5.494788
40  3 0.0000 21.953208  7.561242  7.958163
41  3 0.0000  8.796602  0.936178  0.568037
42  3 0.0000 13.437962  2.218774  3.031412
43  3 0.0000 18.079322  3.501369  5.494788
44  3 0.0000 22.720682  4.783965  7.958163
45  3 0.0000 13.437962  3.713455  0.568037
46  3 0.0000 18.079322  4.996051  3.031412
47  3 0.0000 22.720682  6.278646  5.494788
48  3 0.0000 27.362042  7.561242  7.958163
49  3 0.0000 11.303800  3.123699  1.895341
50  3 0.0000 15.945159  4.406294  4.358716
51  3 0.0000 20.586519  5.688890  6.822092
52  3 0.0000 25.227879  6.971485  9.285467
53  3 0.0000 15.945160  5.900976  1.895341
54  3 0.0000 20.586520  7.183572  4.358716
55  3 0.0000 25.227879  8.466167  6.822092
56  3 0.0000 29.869239  9.748763  9.285467
57  3 0.0000 16.712634  3.123699  1.895341
58  3 0.0000 21.353993  4.406294  4.358716
59  3 0.0000 25.995353  5.688890  6.822092
60  3 0.0000 30.636713  6.971485  9.285467
61  3 0.0000 21.353994  5.900976  1.895341
62  3 0.0000 25.995353  7.183572  4.358716
63  3 0.0000 30.636713  8.466167  6.822092
64  3 0.0000 35.278073  9.748763  9.285467

