Generated by pymatgen.io.lammps.data.LammpsData

384  atoms

  3  atom types

0.000000 21.635335  xlo xhi
0.000000 11.109109  ylo yhi
0.000000 14.780253  zlo zhi
18.565440 27.848158 7.695573  xy xz yz

Masses

1  22.989769
2  58.933195
3  15.999400

Atoms

1    1 0.0000  0.000000  0.000000  0.000000
2    1 0.0000  4.641360  1.282596  2.463375
3    1 0.0000  9.282719  2.565191  4.926751
4    1 0.0000 13.924079  3.847787  7.390126
5    1 0.0000 18.565439  5.130382  9.853502
6    1 0.0000 23.206799  6.412978 12.316877
7    1 0.0000  4.641360  2.777277  0.000000
8    1 0.0000  9.282720  4.059873  2.463375
9    1 0.0000 13.924079  5.342468  4.926751
10   1 0.0000 18.565439  6.625064  7.390126
11   1 0.0000 23.206799  7.907659  9.853502
12   1 0.0000 27.848159  9.190255 12.316877
13   1 0.0000  9.282720  5.554554  0.000000
14   1 0.0000 13.924080  6.837150  2.463375
15   1 0.0000 18.565440  8.119745  4.926751
16   1 0.0000 23.206799  9.402341  7.390126
17   1 0.0000 27.848159 10.684937  9.853502
18   1 0.0000 32.489519 11.967532 12.316877
19   1 0.0000 13.924080  8.331832  0.000000
20   1 0.0000 18.565440  9.614427  2.463375
21   1 0.0000 23.206800 10.897023  4.926751
22   1 0.0000 27.848159 12.179618  7.390126
23   1 0.0000 32.489519 13.462214  9.853502
24   1 0.0000 37.130879 14.744809 12.316877
25   1 0.0000  5.408834  0.000000  0.000000
26   1 0.0000 10.050194  1.282596  2.463375
27   1 0.0000 14.691553  2.565191  4.926751
28   1 0.0000 19.332913  3.847787  7.390126
29   1 0.0000 23.974273  5.130382  9.853502
30   1 0.0000 28.615632  6.412978 12.316877
31   1 0.0000 10.050194  2.777277  0.000000
32   1 0.0000 14.691554  4.059873  2.463375
33   1 0.0000 19.332913  5.342468  4.926751
34   1 0.0000 23.974273  6.625064  7.390126
35   1 0.0000 28.615633  7.907659  9.853502
36   1 0.0000 33.256993  9.190255 12.316877
37   1 0.0000 14.691554  5.554554  0.000000
38   1 0.0000 19.332914  6.837150  2.463375
39   1 0.0000 23.974273  8.119745  4.926751
40   1 0.0000 28.615633  9.402341  7.390126
41   1 0.0000 33.256993 10.684937  9.853502
42   1 0.0000 37.898353 11.967532 12.316877
43   1 0.0000 47.181072 16.027405 14.780253
44   1 0.0000 23.974274  9.614427  2.463375
45   1 0.0000 28.615633 10.897023  4.926751
46   1 0.0000 33.256993 12.179618  7.390126
47   1 0.0000 37.898353 13.462214  9.853502
48   1 0.0000 42.539713 14.744809 12.316877
49   1 0.0000 10.817668  0.000000  0.000000
50   1 0.0000 15.459027  1.282596  2.463375
51   1 0.0000 20.100387  2.565191  4.926751
52   1 0.0000 24.741747  3.847787  7.390126
53   1 0.0000 29.383107  5.130382  9.853502
54   1 0.0000 34.024466  6.412978 12.316877
55   1 0.0000 15.459028  2.777277  0.000000
56   1 0.0000 20.100387  4.059873  2.463375
57   1 0.0000 24.741747  5.342468  4.926751
58   1 0.0000 29.383107  6.625064  7.390126
59   1 0.0000 34.024467  7.907659  9.853502
60   1 0.0000 38.665826  9.190255 12.316877
61   1 0.0000 47.948546 13.250128 14.780253
62   1 0.0000 24.741747  6.837150  2.463375
63   1 0.0000 29.383107  8.119745  4.926751
64   1 0.0000 34.024467  9.402341  7.390126
65   1 0.0000 38.665827 10.684937  9.853502
66   1 0.0000 43.307186 11.967532 12.316877
67   1 0.0000 24.741748  8.331832  0.000000
68   1 0.0000 29.383107  9.614427  2.463375
69   1 0.0000 34.024467 10.897023  4.926751
70   1 0.0000 38.665827 12.179618  7.390126
71   1 0.0000 43.307187 13.462214  9.853502
72   1 0.0000 47.948546 14.744809 12.316877
73   1 0.0000 16.226502  0.000000  0.000000
74   1 0.0000 20.867861  1.282596  2.463375
75   1 0.0000 25.509221  2.565191  4.926751
76   1 0.0000 30.150581  3.847787  7.390126
77   1 0.0000 34.791940  5.130382  9.853502
78   1 0.0000 39.433300  6.412978 12.316877
79   1 0.0000 48.716020 10.472850 14.780253
80   1 0.0000 25.509221  4.059873  2.463375
81   1 0.0000 30.150581  5.342468  4.926751
82   1 0.0000 34.791941  6.625064  7.390126
83   1 0.0000 39.433300  7.907659  9.853502
84   1 0.0000 44.074660  9.190255 12.316877
85   1 0.0000 53.357380 13.250128 14.780253
86   1 0.0000 30.150581  6.837150  2.463375
87   1 0.0000 34.791941  8.119745  4.926751
88   1 0.0000 39.433301  9.402341  7.390126
89   1 0.0000 44.074661 10.684937  9.853502
90   1 0.0000 48.716020 11.967532 12.316877
91   1 0.0000 30.150582  8.331832  0.000000
92   1 0.0000 34.791941  9.614427  2.463375
93   1 0.0000 39.433301 10.897023  4.926751
94   1 0.0000 44.074661 12.179618  7.390126
95   1 0.0000 48.716021 13.462214  9.853502
96   1 0.0000 53.357380 14.744809 12.316877
97   2 0.0000  7.345777  2.029936  1.231688
98   2 0.0000 11.987137  3.312532  3.695063
99   2 0.0000 16.628496  4.595127  6.158439
100  2 0.0000 21.269856  5.877723  8.621814
101  2 0.0000 25.911216  7.160318 11.085190
102  2 0.0000 30.552575  8.442914 13.548565
103  2 0.0000 11.987137  4.807214  1.231688
104  2 0.0000 16.628497  6.089809  3.695063
105  2 0.0000 21.269856  7.372405  6.158439
106  2 0.0000 25.911216  8.655000  8.621814
107  2 0.0000 30.552576  9.937596 11.085190
108  2 0.0000 35.193935 11.220191 13.548565
109  2 0.0000 16.628497  7.584491  1.231688
110  2 0.0000 21.269857  8.867086  3.695063
111  2 0.0000 25.911216 10.149682  6.158439
112  2 0.0000 30.552576 11.432277  8.621814
113  2 0.0000 35.193936 12.714873 11.085190
114  2 0.0000 39.835295 13.997468 13.548565
115  2 0.0000 21.269857 10.361768  1.231688
116  2 0.0000 25.911217 11.644363  3.695063
117  2 0.0000 30.552576 12.926959  6.158439
118  2 0.0000 35.193936 14.209555  8.621814
119  2 0.0000 39.835296 15.492150 11.085190
120  2 0.0000 44.476656 16.774746 13.548565
121  2 0.0000 12.754611  2.029936  1.231688
122  2 0.0000 17.395970  3.312532  3.695063
123  2 0.0000 22.037330  4.595127  6.158439
124  2 0.0000 26.678690  5.877723  8.621814
125  2 0.0000 31.320050  7.160318 11.085190
126  2 0.0000 35.961409  8.442914 13.548565
127  2 0.0000 17.395971  4.807214  1.231688
128  2 0.0000 22.037330  6.089809  3.695063
129  2 0.0000 26.678690  7.372405  6.158439
130  2 0.0000 31.320050  8.655000  8.621814
131  2 0.0000 35.961410  9.937596 11.085190
132  2 0.0000 40.602769 11.220191 13.548565
133  2 0.0000 22.037331  7.584491  1.231688
134  2 0.0000 26.678690  8.867086  3.695063
135  2 0.0000 31.320050 10.149682  6.158439
136  2 0.0000 35.961410 11.432277  8.621814
137  2 0.0000 40.602770 12.714873 11.085190
138  2 0.0000 45.244129 13.997468 13.548565
139  2 0.0000 26.678691 10.361768  1.231688
140  2 0.0000 31.320050 11.644363  3.695063
141  2 0.0000 35.961410 12.926959  6.158439
142  2 0.0000 40.602770 14.209555  8.621814
143  2 0.0000 45.244130 15.492150 11.085190
144  2 0.0000 49.885489 16.774746 13.548565
145  2 0.0000 18.163445  2.029936  1.231688
146  2 0.0000 22.804804  3.312532  3.695063
147  2 0.0000 27.446164  4.595127  6.158439
148  2 0.0000 32.087524  5.877723  8.621814
149  2 0.0000 36.728883  7.160318 11.085190
150  2 0.0000 41.370243  8.442914 13.548565
151  2 0.0000 22.804805  4.807214  1.231688
152  2 0.0000 27.446164  6.089809  3.695063
153  2 0.0000 32.087524  7.372405  6.158439
154  2 0.0000 36.728884  8.655000  8.621814
155  2 0.0000 41.370243  9.937596 11.085190
156  2 0.0000 46.011603 11.220191 13.548565
157  2 0.0000 27.446165  7.584491  1.231688
158  2 0.0000 32.087524  8.867086  3.695063
159  2 0.0000 36.728884 10.149682  6.158439
160  2 0.0000 41.370244 11.432277  8.621814
161  2 0.0000 46.011603 12.714873 11.085190
162  2 0.0000 50.652963 13.997468 13.548565
163  2 0.0000 32.087525 10.361768  1.231688
164  2 0.0000 36.728884 11.644363  3.695063
165  2 0.0000 41.370244 12.926959  6.158439
166  2 0.0000 46.011604 14.209555  8.621814
167  2 0.0000 50.652963 15.492150 11.085190
168  2 0.0000 55.294323 16.774746 13.548565
169  2 0.0000 23.572278  2.029936  1.231688
170  2 0.0000 28.213638  3.312532  3.695063
171  2 0.0000 32.854998  4.595127  6.158439
172  2 0.0000 37.496358  5.877723  8.621814
173  2 0.0000 42.137717  7.160318 11.085190
174  2 0.0000 46.779077  8.442914 13.548565
175  2 0.0000 28.213638  4.807214  1.231688
176  2 0.0000 32.854998  6.089809  3.695063
177  2 0.0000 37.496358  7.372405  6.158439
178  2 0.0000 42.137718  8.655000  8.621814
179  2 0.0000 46.779077  9.937596 11.085190
180  2 0.0000 51.420437 11.220191 13.548565
181  2 0.0000 32.854998  7.584491  1.231688
182  2 0.0000 37.496358  8.867086  3.695063
183  2 0.0000 42.137718 10.149682  6.158439
184  2 0.0000 46.779078 11.432277  8.621814
185  2 0.0000 51.420437 12.714873 11.085190
186  2 0.0000 56.061797 13.997468 13.548565
187  2 0.0000 37.496358 10.361768  1.231688
188  2 0.0000 42.137718 11.644363  3.695063
189  2 0.0000 46.779078 12.926959  6.158439
190  2 0.0000 51.420438 14.209555  8.621814
191  2 0.0000 56.061797 15.492150 11.085190
192  2 0.0000 60.703157 16.774746 13.548565
193  3 0.0000  3.387769  0.936178  0.568037
194  3 0.0000  8.029128  2.218774  3.031412
195  3 0.0000 12.670488  3.501369  5.494788
196  3 0.0000 17.311848  4.783965  7.958163
197  3 0.0000 21.953207  6.066560 10.421539
198  3 0.0000 26.594567  7.349156 12.884914
199  3 0.0000  8.029129  3.713455  0.568037
200  3 0.0000 12.670488  4.996051  3.031412
201  3 0.0000 17.311848  6.278646  5.494788
202  3 0.0000 21.953208  7.561242  7.958163
203  3 0.0000 26.594567  8.843837 10.421539
204  3 0.0000 31.235927 10.126433 12.884914
205  3 0.0000 12.670489  6.490732  0.568037
206  3 0.0000 17.311848  7.773328  3.031412
207  3 0.0000 21.953208  9.055923  5.494788
208  3 0.0000 26.594568 10.338519  7.958163
209  3 0.0000 31.235927 11.621114 10.421539
210  3 0.0000 35.877287 12.903710 12.884914
211  3 0.0000 17.311849  9.268010  0.568037
212  3 0.0000 21.953208 10.550605  3.031412
213  3 0.0000 26.594568 11.833201  5.494788
214  3 0.0000 31.235928 13.115796  7.958163
215  3 0.0000 35.877288 14.398392 10.421539
216  3 0.0000 40.518647 15.680987 12.884914
217  3 0.0000  8.796602  0.936178  0.568037
218  3 0.0000 13.437962  2.218774  3.031412
219  3 0.0000 18.079322  3.501369  5.494788
220  3 0.0000 22.720682  4.783965  7.958163
221  3 0.0000 27.362041  6.066560 10.421539
222  3 0.0000 32.003401  7.349156 12.884914
223  3 0.0000 13.437962  3.713455  0.568037
224  3 0.0000 18.079322  4.996051  3.031412
225  3 0.0000 22.720682  6.278646  5.494788
226  3 0.0000 27.362042  7.561242  7.958163
227  3 0.0000 32.003401  8.843837 10.421539
228  3 0.0000 36.644761 10.126433 12.884914
229  3 0.0000 18.079322  6.490732  0.568037
230  3 0.0000 22.720682  7.773328  3.031412
231  3 0.0000 27.362042  9.055923  5.494788
232  3 0.0000 32.003402 10.338519  7.958163
233  3 0.0000 36.644761 11.621114 10.421539
234  3 0.0000 41.286121 12.903710 12.884914
235  3 0.0000 22.720682  9.268010  0.568037
236  3 0.0000 27.362042 10.550605  3.031412
237  3 0.0000 32.003402 11.833201  5.494788
238  3 0.0000 36.644762 13.115796  7.958163
239  3 0.0000 41.286121 14.398392 10.421539
240  3 0.0000 45.927481 15.680987 12.884914
241  3 0.0000 14.205436  0.936178  0.568037
242  3 0.0000 18.846796  2.218774  3.031412
243  3 0.0000 23.488156  3.501369  5.494788
244  3 0.0000 28.129515  4.783965  7.958163
245  3 0.0000 32.770875  6.066560 10.421539
246  3 0.0000 37.412235  7.349156 12.884914
247  3 0.0000 18.846796  3.713455  0.568037
248  3 0.0000 23.488156  4.996051  3.031412
249  3 0.0000 28.129516  6.278646  5.494788
250  3 0.0000 32.770875  7.561242  7.958163
251  3 0.0000 37.412235  8.843837 10.421539
252  3 0.0000 42.053595 10.126433 12.884914
253  3 0.0000 23.488156  6.490732  0.568037
254  3 0.0000 28.129516  7.773328  3.031412
255  3 0.0000 32.770876  9.055923  5.494788
256  3 0.0000 37.412235 10.338519  7.958163
257  3 0.0000 42.053595 11.621114 10.421539
258  3 0.0000 46.694955 12.903710 12.884914
259  3 0.0000 28.129516  9.268010  0.568037
260  3 0.0000 32.770876 10.550605  3.031412
261  3 0.0000 37.412236 11.833201  5.494788
262  3 0.0000 42.053595 13.115796  7.958163
263  3 0.0000 46.694955 14.398392 10.421539
264  3 0.0000 51.336315 15.680987 12.884914
265  3 0.0000 19.614270  0.936178  0.568037
266  3 0.0000 24.255630  2.218774  3.031412
267  3 0.0000 28.896990  3.501369  5.494788
268  3 0.0000 33.538349  4.783965  7.958163
269  3 0.0000 38.179709  6.066560 10.421539
270  3 0.0000 42.821069  7.349156 12.884914
271  3 0.0000 24.255630  3.713455  0.568037
272  3 0.0000 28.896990  4.996051  3.031412
273  3 0.0000 33.538350  6.278646  5.494788
274  3 0.0000 38.179709  7.561242  7.958163
275  3 0.0000 42.821069  8.843837 10.421539
276  3 0.0000 47.462429 10.126433 12.884914
277  3 0.0000 28.896990  6.490732  0.568037
278  3 0.0000 33.538350  7.773328  3.031412
279  3 0.0000 38.179710  9.055923  5.494788
280  3 0.0000 42.821069 10.338519  7.958163
281  3 0.0000 47.462429 11.621114 10.421539
282  3 0.0000 52.103789 12.903710 12.884914
283  3 0.0000 33.538350  9.268010  0.568037
284  3 0.0000 38.179710 10.550605  3.031412
285  3 0.0000 42.821070 11.833201  5.494788
286  3 0.0000 47.462429 13.115796  7.958163
287  3 0.0000 52.103789 14.398392 10.421539
288  3 0.0000 56.745149 15.680987 12.884914
289  3 0.0000 11.303800  3.123699  1.895341
290  3 0.0000 15.945159  4.406294  4.358716
291  3 0.0000 20.586519  5.688890  6.822092
292  3 0.0000 25.227879  6.971485  9.285467
293  3 0.0000 29.869239  8.254081 11.748843
294  3 0.0000 34.510598  9.536676 14.212218
295  3 0.0000 15.945160  5.900976  1.895341
296  3 0.0000 20.586520  7.183572  4.358716
297  3 0.0000 25.227879  8.466167  6.822092
298  3 0.0000 29.869239  9.748763  9.285467
299  3 0.0000 34.510599 11.031358 11.748843
300  3 0.0000 39.151958 12.313954 14.212218
301  3 0.0000 20.586520  8.678253  1.895341
302  3 0.0000 25.227880  9.960849  4.358716
303  3 0.0000 29.869239 11.243444  6.822092
304  3 0.0000 34.510599 12.526040  9.285467
305  3 0.0000 39.151959 13.808635 11.748843
306  3 0.0000 43.793318 15.091231 14.212218
307  3 0.0000 25.227880 11.455530  1.895341
308  3 0.0000 29.869240 12.738126  4.358716
309  3 0.0000 34.510599 14.020721  6.822092
310  3 0.0000 39.151959 15.303317  9.285467
311  3 0.0000 43.793319 16.585912 11.748843
312  3 0.0000 48.434678 17.868508 14.212218
313  3 0.0000 16.712634  3.123699  1.895341
314  3 0.0000 21.353993  4.406294  4.358716
315  3 0.0000 25.995353  5.688890  6.822092
316  3 0.0000 30.636713  6.971485  9.285467
317  3 0.0000 35.278073  8.254081 11.748843
318  3 0.0000 39.919432  9.536676 14.212218
319  3 0.0000 21.353994  5.900976  1.895341
320  3 0.0000 25.995353  7.183572  4.358716
321  3 0.0000 30.636713  8.466167  6.822092
322  3 0.0000 35.278073  9.748763  9.285467
323  3 0.0000 39.919433 11.031358 11.748843
324  3 0.0000 44.560792 12.313954 14.212218
325  3 0.0000 25.995354  8.678253  1.895341
326  3 0.0000 30.636713  9.960849  4.358716
327  3 0.0000 35.278073 11.243444  6.822092
328  3 0.0000 39.919433 12.526040  9.285467
329  3 0.0000 44.560793 13.808635 11.748843
330  3 0.0000 49.202152 15.091231 14.212218
331  3 0.0000 30.636714 11.455530  1.895341
332  3 0.0000 35.278073 12.738126  4.358716
333  3 0.0000 39.919433 14.020721  6.822092
334  3 0.0000 44.560793 15.303317  9.285467
335  3 0.0000 49.202153 16.585912 11.748843
336  3 0.0000 53.843512 17.868508 14.212218
337  3 0.0000 22.121467  3.123699  1.895341
338  3 0.0000 26.762827  4.406294  4.358716
339  3 0.0000 31.404187  5.688890  6.822092
340  3 0.0000 36.045547  6.971485  9.285467
341  3 0.0000 40.686906  8.254081 11.748843
342  3 0.0000 45.328266  9.536676 14.212218
343  3 0.0000 26.762827  5.900976  1.895341
344  3 0.0000 31.404187  7.183572  4.358716
345  3 0.0000 36.045547  8.466167  6.822092
346  3 0.0000 40.686907  9.748763  9.285467
347  3 0.0000 45.328266 11.031358 11.748843
348  3 0.0000 49.969626 12.313954 14.212218
349  3 0.0000 31.404187  8.678253  1.895341
350  3 0.0000 36.045547  9.960849  4.358716
351  3 0.0000 40.686907 11.243444  6.822092
352  3 0.0000 45.328267 12.526040  9.285467
353  3 0.0000 49.969626 13.808635 11.748843
354  3 0.0000 54.610986 15.091231 14.212218
355  3 0.0000 36.045548 11.455530  1.895341
356  3 0.0000 40.686907 12.738126  4.358716
357  3 0.0000 45.328267 14.020721  6.822092
358  3 0.0000 49.969627 15.303317  9.285467
359  3 0.0000 54.610986 16.585912 11.748843
360  3 0.0000 59.252346 17.868508 14.212218
361  3 0.0000 27.530301  3.123699  1.895341
362  3 0.0000 32.171661  4.406294  4.358716
363  3 0.0000 36.813021  5.688890  6.822092
364  3 0.0000 41.454380  6.971485  9.285467
365  3 0.0000 46.095740  8.254081 11.748843
366  3 0.0000 50.737100  9.536676 14.212218
367  3 0.0000 32.171661  5.900976  1.895341
368  3 0.0000 36.813021  7.183572  4.358716
369  3 0.0000 41.454381  8.466167  6.822092
370  3 0.0000 46.095741  9.748763  9.285467
371  3 0.0000 50.737100 11.031358 11.748843
372  3 0.0000 55.378460 12.313954 14.212218
373  3 0.0000 36.813021  8.678253  1.895341
374  3 0.0000 41.454381  9.960849  4.358716
375  3 0.0000 46.095741 11.243444  6.822092
376  3 0.0000 50.737101 12.526040  9.285467
377  3 0.0000 55.378460 13.808635 11.748843
378  3 0.0000 60.019820 15.091231 14.212218
379  3 0.0000 41.454381 11.455530  1.895341
380  3 0.0000 46.095741 12.738126  4.358716
381  3 0.0000 50.737101 14.020721  6.822092
382  3 0.0000 55.378461 15.303317  9.285467
383  3 0.0000 60.019820 16.585912 11.748843
384  3 0.0000 64.661180 17.868508 14.212218

