Generated by pymatgen.io.lammps.data.LammpsData

672  atoms

  4  atom types

0.000000 25.957166  xlo xhi
0.000000 19.080428  ylo yhi
0.000000 15.623202  zlo zhi
17.598628 -32.666845 -14.310321  xy xz yz

Masses

1  40.078000
2  88.905850
3  26.981539
4  15.999400

Atoms

1    1 0.0000   7.009859   3.070799 -0.000000
2    1 0.0000   1.565384   0.685746  2.603867
3    1 0.0000  -3.879090  -1.699308  5.207734
4    1 0.0000  -9.323564  -4.084361  7.811601
5    1 0.0000 -14.768038  -6.469415 10.415468
6    1 0.0000 -20.212512  -8.854468 13.019335
7    1 0.0000  11.409515   7.840906 -0.000000
8    1 0.0000   5.965041   5.455853  2.603867
9    1 0.0000   0.520567   3.070799  5.207734
10   1 0.0000  -4.923907   0.685746  7.811601
11   1 0.0000 -10.368381  -1.699308 10.415468
12   1 0.0000 -15.812855  -4.084361 13.019335
13   1 0.0000  15.809172  12.611013 -0.000000
14   1 0.0000  10.364698  10.225960  2.603867
15   1 0.0000   4.920224   7.840906  5.207734
16   1 0.0000  -0.524250   5.455853  7.811601
17   1 0.0000  -5.968724   3.070799 10.415468
18   1 0.0000 -11.413198   0.685746 13.019335
19   1 0.0000  20.208829  17.381120 -0.000000
20   1 0.0000  14.764355  14.996067  2.603867
21   1 0.0000   9.319881  12.611013  5.207734
22   1 0.0000   3.875407  10.225960  7.811601
23   1 0.0000  -1.569067   7.840906 10.415468
24   1 0.0000  -7.013541   5.455853 13.019335
25   1 0.0000  13.499150   3.070799 -0.000000
26   1 0.0000   8.054676   0.685746  2.603867
27   1 0.0000   2.610202  -1.699308  5.207734
28   1 0.0000  -2.834273  -4.084361  7.811601
29   1 0.0000  -8.278747  -6.469415 10.415468
30   1 0.0000 -13.723221  -8.854468 13.019335
31   1 0.0000  17.898807   7.840906 -0.000000
32   1 0.0000  12.454333   5.455853  2.603867
33   1 0.0000   7.009859   3.070799  5.207734
34   1 0.0000   1.565384   0.685746  7.811601
35   1 0.0000  -3.879090  -1.699308 10.415468
36   1 0.0000  -9.323564  -4.084361 13.019335
37   1 0.0000  22.298464  12.611013 -0.000000
38   1 0.0000  16.853990  10.225960  2.603867
39   1 0.0000  11.409515   7.840906  5.207734
40   1 0.0000   5.965041   5.455853  7.811601
41   1 0.0000   0.520567   3.070799 10.415468
42   1 0.0000  -4.923907   0.685746 13.019335
43   1 0.0000  26.698121  17.381120 -0.000000
44   1 0.0000  21.253647  14.996067  2.603867
45   1 0.0000  15.809172  12.611013  5.207734
46   1 0.0000  10.364698  10.225960  7.811601
47   1 0.0000   4.920224   7.840906 10.415468
48   1 0.0000  -0.524250   5.455853 13.019335
49   1 0.0000  19.988441   3.070799 -0.000000
50   1 0.0000  14.543967   0.685746  2.603867
51   1 0.0000   9.099493  -1.699308  5.207734
52   1 0.0000   3.655019  -4.084361  7.811601
53   1 0.0000  -1.789455  -6.469415 10.415468
54   1 0.0000  -7.233930  -8.854468 13.019335
55   1 0.0000  24.388098   7.840906 -0.000000
56   1 0.0000  18.943624   5.455853  2.603867
57   1 0.0000  13.499150   3.070799  5.207734
58   1 0.0000   8.054676   0.685746  7.811601
59   1 0.0000   2.610202  -1.699308 10.415468
60   1 0.0000  -2.834273  -4.084361 13.019335
61   1 0.0000  28.787755  12.611013 -0.000000
62   1 0.0000  23.343281  10.225960  2.603867
63   1 0.0000  17.898807   7.840906  5.207734
64   1 0.0000  12.454333   5.455853  7.811601
65   1 0.0000   7.009859   3.070799 10.415468
66   1 0.0000   1.565384   0.685746 13.019335
67   1 0.0000  33.187412  17.381120 -0.000000
68   1 0.0000  27.742938  14.996067  2.603867
69   1 0.0000  22.298464  12.611013  5.207734
70   1 0.0000  16.853990  10.225960  7.811601
71   1 0.0000  11.409515   7.840906 10.415468
72   1 0.0000   5.965041   5.455853 13.019335
73   1 0.0000  26.477733   3.070799 -0.000000
74   1 0.0000  21.033258   0.685746  2.603867
75   1 0.0000  15.588784  -1.699308  5.207734
76   1 0.0000  10.144310  -4.084361  7.811601
77   1 0.0000   4.699836  -6.469415 10.415468
78   1 0.0000  -0.744638  -8.854468 13.019335
79   1 0.0000  30.877390   7.840906 -0.000000
80   1 0.0000  25.432915   5.455853  2.603867
81   1 0.0000  19.988441   3.070799  5.207734
82   1 0.0000  14.543967   0.685746  7.811601
83   1 0.0000   9.099493  -1.699308 10.415468
84   1 0.0000   3.655019  -4.084361 13.019335
85   1 0.0000  35.277047  12.611013 -0.000000
86   1 0.0000  29.832572  10.225960  2.603867
87   1 0.0000  24.388098   7.840906  5.207734
88   1 0.0000  18.943624   5.455853  7.811601
89   1 0.0000  13.499150   3.070799 10.415468
90   1 0.0000   8.054676   0.685746 13.019335
91   1 0.0000  39.676704  17.381120 -0.000000
92   1 0.0000  34.232229  14.996067  2.603867
93   1 0.0000  28.787755  12.611013  5.207734
94   1 0.0000  23.343281  10.225960  7.811601
95   1 0.0000  17.898807   7.840906 10.415468
96   1 0.0000  12.454333   5.455853 13.019335
97   2 0.0000   3.904875   1.710603 -0.000000
98   2 0.0000  -1.539599  -0.674450  2.603867
99   2 0.0000  -6.984073  -3.059504  5.207734
100  2 0.0000 -12.428548  -5.444557  7.811601
101  2 0.0000 -17.873022  -7.829611 10.415468
102  2 0.0000 -23.317496 -10.214664 13.019335
103  2 0.0000   8.304532   6.480710 -0.000000
104  2 0.0000   2.860058   4.095657  2.603867
105  2 0.0000  -2.584416   1.710603  5.207734
106  2 0.0000  -8.028891  -0.674450  7.811601
107  2 0.0000 -13.473365  -3.059504 10.415468
108  2 0.0000 -18.917839  -5.444557 13.019335
109  2 0.0000  12.704189  11.250817 -0.000000
110  2 0.0000   7.259715   8.865764  2.603867
111  2 0.0000   1.815240   6.480710  5.207734
112  2 0.0000  -3.629234   4.095657  7.811601
113  2 0.0000  -9.073708   1.710603 10.415468
114  2 0.0000 -14.518182  -0.674450 13.019335
115  2 0.0000  17.103846  16.020924 -0.000000
116  2 0.0000  11.659372  13.635871  2.603867
117  2 0.0000   6.214897  11.250817  5.207734
118  2 0.0000   0.770423   8.865764  7.811601
119  2 0.0000  -4.674051   6.480710 10.415468
120  2 0.0000 -10.118525   4.095657 13.019335
121  2 0.0000  10.394166   1.710603 -0.000000
122  2 0.0000   4.949692  -0.674450  2.603867
123  2 0.0000  -0.494782  -3.059504  5.207734
124  2 0.0000  -5.939256  -5.444557  7.811601
125  2 0.0000 -11.383730  -7.829611 10.415468
126  2 0.0000 -16.828205 -10.214664 13.019335
127  2 0.0000  14.793823   6.480710 -0.000000
128  2 0.0000   9.349349   4.095657  2.603867
129  2 0.0000   3.904875   1.710603  5.207734
130  2 0.0000  -1.539599  -0.674450  7.811601
131  2 0.0000  -6.984073  -3.059504 10.415468
132  2 0.0000 -12.428548  -5.444557 13.019335
133  2 0.0000  19.193480  11.250817 -0.000000
134  2 0.0000  13.749006   8.865764  2.603867
135  2 0.0000   8.304532   6.480710  5.207734
136  2 0.0000   2.860058   4.095657  7.811601
137  2 0.0000  -2.584416   1.710603 10.415468
138  2 0.0000  -8.028891  -0.674450 13.019335
139  2 0.0000  23.593137  16.020924 -0.000000
140  2 0.0000  18.148663  13.635871  2.603867
141  2 0.0000  12.704189  11.250817  5.207734
142  2 0.0000   7.259715   8.865764  7.811601
143  2 0.0000   1.815240   6.480710 10.415468
144  2 0.0000  -3.629234   4.095657 13.019335
145  2 0.0000  16.883458   1.710603 -0.000000
146  2 0.0000  11.438983  -0.674450  2.603867
147  2 0.0000   5.994509  -3.059504  5.207734
148  2 0.0000   0.550035  -5.444557  7.811601
149  2 0.0000  -4.894439  -7.829611 10.415468
150  2 0.0000 -10.338913 -10.214664 13.019335
151  2 0.0000  21.283115   6.480710 -0.000000
152  2 0.0000  15.838640   4.095657  2.603867
153  2 0.0000  10.394166   1.710603  5.207734
154  2 0.0000   4.949692  -0.674450  7.811601
155  2 0.0000  -0.494782  -3.059504 10.415468
156  2 0.0000  -5.939256  -5.444557 13.019335
157  2 0.0000  25.682772  11.250817 -0.000000
158  2 0.0000  20.238297   8.865764  2.603867
159  2 0.0000  14.793823   6.480710  5.207734
160  2 0.0000   9.349349   4.095657  7.811601
161  2 0.0000   3.904875   1.710603 10.415468
162  2 0.0000  -1.539599  -0.674450 13.019335
163  2 0.0000  30.082429  16.020924 -0.000000
164  2 0.0000  24.637954  13.635871  2.603867
165  2 0.0000  19.193480  11.250817  5.207734
166  2 0.0000  13.749006   8.865764  7.811601
167  2 0.0000   8.304532   6.480710 10.415468
168  2 0.0000   2.860058   4.095657 13.019335
169  2 0.0000  23.372749   1.710603 -0.000000
170  2 0.0000  17.928275  -0.674450  2.603867
171  2 0.0000  12.483801  -3.059504  5.207734
172  2 0.0000   7.039326  -5.444557  7.811601
173  2 0.0000   1.594852  -7.829611 10.415468
174  2 0.0000  -3.849622 -10.214664 13.019335
175  2 0.0000  27.772406   6.480710 -0.000000
176  2 0.0000  22.327932   4.095657  2.603867
177  2 0.0000  16.883458   1.710603  5.207734
178  2 0.0000  11.438983  -0.674450  7.811601
179  2 0.0000   5.994509  -3.059504 10.415468
180  2 0.0000   0.550035  -5.444557 13.019335
181  2 0.0000  32.172063  11.250817 -0.000000
182  2 0.0000  26.727589   8.865764  2.603867
183  2 0.0000  21.283115   6.480710  5.207734
184  2 0.0000  15.838640   4.095657  7.811601
185  2 0.0000  10.394166   1.710603 10.415468
186  2 0.0000   4.949692  -0.674450 13.019335
187  2 0.0000  36.571720  16.020924 -0.000000
188  2 0.0000  31.127246  13.635871  2.603867
189  2 0.0000  25.682772  11.250817  5.207734
190  2 0.0000  20.238297   8.865764  7.811601
191  2 0.0000  14.793823   6.480710 10.415468
192  2 0.0000   9.349349   4.095657 13.019335
193  3 0.0000   0.058038   0.025425 -0.000000
194  3 0.0000  -5.386436  -2.359629  2.603867
195  3 0.0000 -10.830910  -4.744682  5.207734
196  3 0.0000 -16.275384  -7.129736  7.811601
197  3 0.0000 -21.719859  -9.514789 10.415468
198  3 0.0000 -27.164333 -11.899843 13.019335
199  3 0.0000   4.457695   4.795532 -0.000000
200  3 0.0000  -0.986779   2.410478  2.603867
201  3 0.0000  -6.431253   0.025425  5.207734
202  3 0.0000 -11.875727  -2.359629  7.811601
203  3 0.0000 -17.320202  -4.744682 10.415468
204  3 0.0000 -22.764676  -7.129736 13.019335
205  3 0.0000   8.857352   9.565639 -0.000000
206  3 0.0000   3.412878   7.180585  2.603867
207  3 0.0000  -2.031596   4.795532  5.207734
208  3 0.0000  -7.476070   2.410478  7.811601
209  3 0.0000 -12.920545   0.025425 10.415468
210  3 0.0000 -18.365019  -2.359629 13.019335
211  3 0.0000  13.257009  14.335746 -0.000000
212  3 0.0000   7.812535  11.950692  2.603867
213  3 0.0000   2.368061   9.565639  5.207734
214  3 0.0000  -3.076414   7.180585  7.811601
215  3 0.0000  -8.520888   4.795532 10.415468
216  3 0.0000 -13.965362   2.410478 13.019335
217  3 0.0000   6.547329   0.025425 -0.000000
218  3 0.0000   1.102855  -2.359629  2.603867
219  3 0.0000  -4.341619  -4.744682  5.207734
220  3 0.0000  -9.786093  -7.129736  7.811601
221  3 0.0000 -15.230567  -9.514789 10.415468
222  3 0.0000 -20.675041 -11.899843 13.019335
223  3 0.0000  10.946986   4.795532 -0.000000
224  3 0.0000   5.502512   2.410478  2.603867
225  3 0.0000   0.058038   0.025425  5.207734
226  3 0.0000  -5.386436  -2.359629  7.811601
227  3 0.0000 -10.830910  -4.744682 10.415468
228  3 0.0000 -16.275384  -7.129736 13.019335
229  3 0.0000  15.346643   9.565639 -0.000000
230  3 0.0000   9.902169   7.180585  2.603867
231  3 0.0000   4.457695   4.795532  5.207734
232  3 0.0000  -0.986779   2.410478  7.811601
233  3 0.0000  -6.431253   0.025425 10.415468
234  3 0.0000 -11.875727  -2.359629 13.019335
235  3 0.0000  19.746300  14.335746 -0.000000
236  3 0.0000  14.301826  11.950692  2.603867
237  3 0.0000   8.857352   9.565639  5.207734
238  3 0.0000   3.412878   7.180585  7.811601
239  3 0.0000  -2.031596   4.795532 10.415468
240  3 0.0000  -7.476070   2.410478 13.019335
241  3 0.0000  13.036621   0.025425 -0.000000
242  3 0.0000   7.592147  -2.359629  2.603867
243  3 0.0000   2.147672  -4.744682  5.207734
244  3 0.0000  -3.296802  -7.129736  7.811601
245  3 0.0000  -8.741276  -9.514789 10.415468
246  3 0.0000 -14.185750 -11.899843 13.019335
247  3 0.0000  17.436278   4.795532 -0.000000
248  3 0.0000  11.991804   2.410478  2.603867
249  3 0.0000   6.547329   0.025425  5.207734
250  3 0.0000   1.102855  -2.359629  7.811601
251  3 0.0000  -4.341619  -4.744682 10.415468
252  3 0.0000  -9.786093  -7.129736 13.019335
253  3 0.0000  21.835935   9.565639 -0.000000
254  3 0.0000  16.391461   7.180585  2.603867
255  3 0.0000  10.946986   4.795532  5.207734
256  3 0.0000   5.502512   2.410478  7.811601
257  3 0.0000   0.058038   0.025425 10.415468
258  3 0.0000  -5.386436  -2.359629 13.019335
259  3 0.0000  26.235592  14.335746 -0.000000
260  3 0.0000  20.791118  11.950692  2.603867
261  3 0.0000  15.346643   9.565639  5.207734
262  3 0.0000   9.902169   7.180585  7.811601
263  3 0.0000   4.457695   4.795532 10.415468
264  3 0.0000  -0.986779   2.410478 13.019335
265  3 0.0000  19.525912   0.025425 -0.000000
266  3 0.0000  14.081438  -2.359629  2.603867
267  3 0.0000   8.636964  -4.744682  5.207734
268  3 0.0000   3.192490  -7.129736  7.811601
269  3 0.0000  -2.251984  -9.514789 10.415468
270  3 0.0000  -7.696459 -11.899843 13.019335
271  3 0.0000  23.925569   4.795532 -0.000000
272  3 0.0000  18.481095   2.410478  2.603867
273  3 0.0000  13.036621   0.025425  5.207734
274  3 0.0000   7.592147  -2.359629  7.811601
275  3 0.0000   2.147672  -4.744682 10.415468
276  3 0.0000  -3.296802  -7.129736 13.019335
277  3 0.0000  28.325226   9.565639 -0.000000
278  3 0.0000  22.880752   7.180585  2.603867
279  3 0.0000  17.436278   4.795532  5.207734
280  3 0.0000  11.991804   2.410478  7.811601
281  3 0.0000   6.547329   0.025425 10.415468
282  3 0.0000   1.102855  -2.359629 13.019335
283  3 0.0000  32.724883  14.335746 -0.000000
284  3 0.0000  27.280409  11.950692  2.603867
285  3 0.0000  21.835935   9.565639  5.207734
286  3 0.0000  16.391461   7.180585  7.811601
287  3 0.0000  10.946986   4.795532 10.415468
288  3 0.0000   5.502512   2.410478 13.019335
289  4 0.0000   9.067173   3.972044 -0.000000
290  4 0.0000   3.622699   1.586991  2.603867
291  4 0.0000  -1.821776  -0.798063  5.207734
292  4 0.0000  -7.266250  -3.183116  7.811601
293  4 0.0000 -12.710724  -5.568170 10.415468
294  4 0.0000 -18.155198  -7.953223 13.019335
295  4 0.0000  13.466830   8.742151 -0.000000
296  4 0.0000   8.022356   6.357098  2.603867
297  4 0.0000   2.577881   3.972044  5.207734
298  4 0.0000  -2.866593   1.586991  7.811601
299  4 0.0000  -8.311067  -0.798063 10.415468
300  4 0.0000 -13.755541  -3.183116 13.019335
301  4 0.0000  17.866487  13.512258 -0.000000
302  4 0.0000  12.422013  11.127205  2.603867
303  4 0.0000   6.977538   8.742151  5.207734
304  4 0.0000   1.533064   6.357098  7.811601
305  4 0.0000  -3.911410   3.972044 10.415468
306  4 0.0000  -9.355884   1.586991 13.019335
307  4 0.0000  22.266144  18.282365 -0.000000
308  4 0.0000  16.821670  15.897312  2.603867
309  4 0.0000  11.377195  13.512258  5.207734
310  4 0.0000   5.932721  11.127205  7.811601
311  4 0.0000   0.488247   8.742151 10.415468
312  4 0.0000  -4.956227   6.357098 13.019335
313  4 0.0000  15.556464   3.972044 -0.000000
314  4 0.0000  10.111990   1.586991  2.603867
315  4 0.0000   4.667516  -0.798063  5.207734
316  4 0.0000  -0.776958  -3.183116  7.811601
317  4 0.0000  -6.221432  -5.568170 10.415468
318  4 0.0000 -11.665907  -7.953223 13.019335
319  4 0.0000  19.956121   8.742151 -0.000000
320  4 0.0000  14.511647   6.357098  2.603867
321  4 0.0000   9.067173   3.972044  5.207734
322  4 0.0000   3.622699   1.586991  7.811601
323  4 0.0000  -1.821776  -0.798063 10.415468
324  4 0.0000  -7.266250  -3.183116 13.019335
325  4 0.0000  24.355778  13.512258 -0.000000
326  4 0.0000  18.911304  11.127205  2.603867
327  4 0.0000  13.466830   8.742151  5.207734
328  4 0.0000   8.022356   6.357098  7.811601
329  4 0.0000   2.577881   3.972044 10.415468
330  4 0.0000  -2.866593   1.586991 13.019335
331  4 0.0000  28.755435  18.282365 -0.000000
332  4 0.0000  23.310961  15.897312  2.603867
333  4 0.0000  17.866487  13.512258  5.207734
334  4 0.0000  12.422013  11.127205  7.811601
335  4 0.0000   6.977538   8.742151 10.415468
336  4 0.0000   1.533064   6.357098 13.019335
337  4 0.0000  22.045756   3.972044 -0.000000
338  4 0.0000  16.601281   1.586991  2.603867
339  4 0.0000  11.156807  -0.798063  5.207734
340  4 0.0000   5.712333  -3.183116  7.811601
341  4 0.0000   0.267859  -5.568170 10.415468
342  4 0.0000  -5.176615  -7.953223 13.019335
343  4 0.0000  26.445413   8.742151 -0.000000
344  4 0.0000  21.000938   6.357098  2.603867
345  4 0.0000  15.556464   3.972044  5.207734
346  4 0.0000  10.111990   1.586991  7.811601
347  4 0.0000   4.667516  -0.798063 10.415468
348  4 0.0000  -0.776958  -3.183116 13.019335
349  4 0.0000  30.845070  13.512258 -0.000000
350  4 0.0000  25.400595  11.127205  2.603867
351  4 0.0000  19.956121   8.742151  5.207734
352  4 0.0000  14.511647   6.357098  7.811601
353  4 0.0000   9.067173   3.972044 10.415468
354  4 0.0000   3.622699   1.586991 13.019335
355  4 0.0000  35.244727  18.282365 -0.000000
356  4 0.0000  29.800252  15.897312  2.603867
357  4 0.0000  24.355778  13.512258  5.207734
358  4 0.0000  18.911304  11.127205  7.811601
359  4 0.0000  13.466830   8.742151 10.415468
360  4 0.0000   8.022356   6.357098 13.019335
361  4 0.0000  -4.131798 -10.338277 15.623202
362  4 0.0000  23.090573   1.586991  2.603867
363  4 0.0000  17.646099  -0.798063  5.207734
364  4 0.0000  12.201624  -3.183116  7.811601
365  4 0.0000   6.757150  -5.568170 10.415468
366  4 0.0000   1.312676  -7.953223 13.019335
367  4 0.0000  32.934704   8.742151 -0.000000
368  4 0.0000  27.490230   6.357098  2.603867
369  4 0.0000  22.045756   3.972044  5.207734
370  4 0.0000  16.601281   1.586991  7.811601
371  4 0.0000  11.156807  -0.798063 10.415468
372  4 0.0000   5.712333  -3.183116 13.019335
373  4 0.0000  37.334361  13.512258 -0.000000
374  4 0.0000  31.889887  11.127205  2.603867
375  4 0.0000  26.445413   8.742151  5.207734
376  4 0.0000  21.000938   6.357098  7.811601
377  4 0.0000  15.556464   3.972044 10.415468
378  4 0.0000  10.111990   1.586991 13.019335
379  4 0.0000  41.734018  18.282365 -0.000000
380  4 0.0000  36.289544  15.897312  2.603867
381  4 0.0000  30.845070  13.512258  5.207734
382  4 0.0000  25.400595  11.127205  7.811601
383  4 0.0000  19.956121   8.742151 10.415468
384  4 0.0000  14.511647   6.357098 13.019335
385  4 0.0000   1.853168   0.811815 -0.000000
386  4 0.0000  -3.591306  -1.573239  2.603867
387  4 0.0000  -9.035780  -3.958292  5.207734
388  4 0.0000 -14.480254  -6.343346  7.811601
389  4 0.0000 -19.924728  -8.728399 10.415468
390  4 0.0000 -25.369203 -11.113453 13.019335
391  4 0.0000   6.252825   5.581922 -0.000000
392  4 0.0000   0.808351   3.196868  2.603867
393  4 0.0000  -4.636123   0.811815  5.207734
394  4 0.0000 -10.080597  -1.573239  7.811601
395  4 0.0000 -15.525071  -3.958292 10.415468
396  4 0.0000 -20.969546  -6.343346 13.019335
397  4 0.0000  10.652482  10.352029 -0.000000
398  4 0.0000   5.208008   7.966976  2.603867
399  4 0.0000  -0.236466   5.581922  5.207734
400  4 0.0000  -5.680940   3.196868  7.811601
401  4 0.0000 -11.125414   0.811815 10.415468
402  4 0.0000 -16.569889  -1.573239 13.019335
403  4 0.0000  15.052139  15.122136 -0.000000
404  4 0.0000   9.607665  12.737083  2.603867
405  4 0.0000   4.163191  10.352029  5.207734
406  4 0.0000  -1.281283   7.966976  7.811601
407  4 0.0000  -6.725757   5.581922 10.415468
408  4 0.0000 -12.170232   3.196868 13.019335
409  4 0.0000   8.342460   0.811815 -0.000000
410  4 0.0000   2.897986  -1.573239  2.603867
411  4 0.0000  -2.546489  -3.958292  5.207734
412  4 0.0000  -7.990963  -6.343346  7.811601
413  4 0.0000 -13.435437  -8.728399 10.415468
414  4 0.0000 -18.879911 -11.113453 13.019335
415  4 0.0000  12.742117   5.581922 -0.000000
416  4 0.0000   7.297643   3.196868  2.603867
417  4 0.0000   1.853168   0.811815  5.207734
418  4 0.0000  -3.591306  -1.573239  7.811601
419  4 0.0000  -9.035780  -3.958292 10.415468
420  4 0.0000 -14.480254  -6.343346 13.019335
421  4 0.0000  17.141774  10.352029 -0.000000
422  4 0.0000  11.697300   7.966976  2.603867
423  4 0.0000   6.252825   5.581922  5.207734
424  4 0.0000   0.808351   3.196868  7.811601
425  4 0.0000  -4.636123   0.811815 10.415468
426  4 0.0000 -10.080597  -1.573239 13.019335
427  4 0.0000  21.541431  15.122136  0.000000
428  4 0.0000  16.096956  12.737083  2.603867
429  4 0.0000  10.652482  10.352029  5.207734
430  4 0.0000   5.208008   7.966976  7.811601
431  4 0.0000  -0.236466   5.581922 10.415468
432  4 0.0000  -5.680940   3.196868 13.019335
433  4 0.0000  14.831751   0.811815 -0.000000
434  4 0.0000   9.387277  -1.573239  2.603867
435  4 0.0000   3.942803  -3.958292  5.207734
436  4 0.0000  -1.501671  -6.343346  7.811601
437  4 0.0000  -6.946146  -8.728399 10.415468
438  4 0.0000 -12.390620 -11.113453 13.019335
439  4 0.0000  19.231408   5.581922 -0.000000
440  4 0.0000  13.786934   3.196868  2.603867
441  4 0.0000   8.342460   0.811815  5.207734
442  4 0.0000   2.897986  -1.573239  7.811601
443  4 0.0000  -2.546489  -3.958292 10.415468
444  4 0.0000  -7.990963  -6.343346 13.019335
445  4 0.0000  23.631065  10.352029 -0.000000
446  4 0.0000  18.186591   7.966976  2.603867
447  4 0.0000  12.742117   5.581922  5.207734
448  4 0.0000   7.297643   3.196868  7.811601
449  4 0.0000   1.853168   0.811815 10.415468
450  4 0.0000  -3.591306  -1.573239 13.019335
451  4 0.0000  28.030722  15.122136 -0.000000
452  4 0.0000  22.586248  12.737083  2.603867
453  4 0.0000  17.141774  10.352029  5.207734
454  4 0.0000  11.697300   7.966976  7.811601
455  4 0.0000   6.252825   5.581922 10.415468
456  4 0.0000   0.808351   3.196868 13.019335
457  4 0.0000  21.321042   0.811815 -0.000000
458  4 0.0000  15.876568  -1.573239  2.603867
459  4 0.0000  10.432094  -3.958292  5.207734
460  4 0.0000   4.987620  -6.343346  7.811601
461  4 0.0000  -0.456854  -8.728399 10.415468
462  4 0.0000  -5.901328 -11.113453 13.019335
463  4 0.0000  25.720699   5.581922 -0.000000
464  4 0.0000  20.276225   3.196868  2.603867
465  4 0.0000  14.831751   0.811815  5.207734
466  4 0.0000   9.387277  -1.573239  7.811601
467  4 0.0000   3.942803  -3.958292 10.415468
468  4 0.0000  -1.501671  -6.343346 13.019335
469  4 0.0000  30.120356  10.352029 -0.000000
470  4 0.0000  24.675882   7.966976  2.603867
471  4 0.0000  19.231408   5.581922  5.207734
472  4 0.0000  13.786934   3.196868  7.811601
473  4 0.0000   8.342460   0.811815 10.415468
474  4 0.0000   2.897986  -1.573239 13.019335
475  4 0.0000  34.520013  15.122136 -0.000000
476  4 0.0000  29.075539  12.737083  2.603867
477  4 0.0000  23.631065  10.352029  5.207734
478  4 0.0000  18.186591   7.966976  7.811601
479  4 0.0000  12.742117   5.581922 10.415468
480  4 0.0000   7.297643   3.196868 13.019335
481  4 0.0000   5.909269   1.167288  1.301933
482  4 0.0000   0.464795  -1.217765  3.905800
483  4 0.0000  -4.979679  -3.602819  6.509667
484  4 0.0000 -10.424153  -5.987872  9.113534
485  4 0.0000 -15.868627  -8.372926 11.717401
486  4 0.0000 -21.313102 -10.757979 14.321268
487  4 0.0000  10.308926   5.937395  1.301933
488  4 0.0000   4.864452   3.552342  3.905800
489  4 0.0000  -0.580022   1.167288  6.509667
490  4 0.0000  -6.024496  -1.217765  9.113534
491  4 0.0000 -11.468970  -3.602819 11.717401
492  4 0.0000 -16.913445  -5.987872 14.321268
493  4 0.0000  14.708583  10.707502  1.301933
494  4 0.0000   9.264109   8.322449  3.905800
495  4 0.0000   3.819635   5.937395  6.509667
496  4 0.0000  -1.624839   3.552342  9.113534
497  4 0.0000  -7.069313   1.167288 11.717401
498  4 0.0000 -12.513788  -1.217765 14.321268
499  4 0.0000  19.108240  15.477609  1.301933
500  4 0.0000  13.663766  13.092556  3.905800
501  4 0.0000   8.219292  10.707502  6.509667
502  4 0.0000   2.774818   8.322449  9.113534
503  4 0.0000  -2.669656   5.937395 11.717401
504  4 0.0000  -8.114131   3.552342 14.321268
505  4 0.0000  12.398561   1.167288  1.301933
506  4 0.0000   6.954087  -1.217765  3.905800
507  4 0.0000   1.509612  -3.602819  6.509667
508  4 0.0000  -3.934862  -5.987872  9.113534
509  4 0.0000  -9.379336  -8.372926 11.717401
510  4 0.0000 -14.823810 -10.757979 14.321268
511  4 0.0000  16.798218   5.937395  1.301933
512  4 0.0000  11.353744   3.552342  3.905800
513  4 0.0000   5.909269   1.167288  6.509667
514  4 0.0000   0.464795  -1.217765  9.113534
515  4 0.0000  -4.979679  -3.602819 11.717401
516  4 0.0000 -10.424153  -5.987872 14.321268
517  4 0.0000  21.197875  10.707502  1.301933
518  4 0.0000  15.753401   8.322449  3.905800
519  4 0.0000  10.308926   5.937395  6.509667
520  4 0.0000   4.864452   3.552342  9.113534
521  4 0.0000  -0.580022   1.167288 11.717401
522  4 0.0000  -6.024496  -1.217765 14.321268
523  4 0.0000  25.597532  15.477609  1.301933
524  4 0.0000  20.153057  13.092556  3.905800
525  4 0.0000  14.708583  10.707502  6.509667
526  4 0.0000   9.264109   8.322449  9.113534
527  4 0.0000   3.819635   5.937395 11.717401
528  4 0.0000  -1.624839   3.552342 14.321268
529  4 0.0000  18.887852   1.167288  1.301933
530  4 0.0000  13.443378  -1.217765  3.905800
531  4 0.0000   7.998904  -3.602819  6.509667
532  4 0.0000   2.554430  -5.987872  9.113534
533  4 0.0000  -2.890045  -8.372926 11.717401
534  4 0.0000  -8.334519 -10.757979 14.321268
535  4 0.0000  23.287509   5.937395  1.301933
536  4 0.0000  17.843035   3.552342  3.905800
537  4 0.0000  12.398561   1.167288  6.509667
538  4 0.0000   6.954087  -1.217765  9.113534
539  4 0.0000   1.509612  -3.602819 11.717401
540  4 0.0000  -3.934862  -5.987872 14.321268
541  4 0.0000  27.687166  10.707502  1.301933
542  4 0.0000  22.242692   8.322449  3.905800
543  4 0.0000  16.798218   5.937395  6.509667
544  4 0.0000  11.353744   3.552342  9.113534
545  4 0.0000   5.909269   1.167288 11.717401
546  4 0.0000   0.464795  -1.217765 14.321268
547  4 0.0000  32.086823  15.477609  1.301933
548  4 0.0000  26.642349  13.092556  3.905800
549  4 0.0000  21.197875  10.707502  6.509667
550  4 0.0000  15.753401   8.322449  9.113534
551  4 0.0000  10.308926   5.937395 11.717401
552  4 0.0000   4.864452   3.552342 14.321268
553  4 0.0000  25.377143   1.167288  1.301933
554  4 0.0000  19.932669  -1.217765  3.905800
555  4 0.0000  14.488195  -3.602819  6.509667
556  4 0.0000   9.043721  -5.987872  9.113534
557  4 0.0000   3.599247  -8.372926 11.717401
558  4 0.0000  -1.845227 -10.757979 14.321268
559  4 0.0000  29.776800   5.937395  1.301933
560  4 0.0000  24.332326   3.552342  3.905800
561  4 0.0000  18.887852   1.167288  6.509667
562  4 0.0000  13.443378  -1.217765  9.113534
563  4 0.0000   7.998904  -3.602819 11.717401
564  4 0.0000   2.554430  -5.987872 14.321268
565  4 0.0000  34.176457  10.707502  1.301933
566  4 0.0000  28.731983   8.322449  3.905800
567  4 0.0000  23.287509   5.937395  6.509667
568  4 0.0000  17.843035   3.552342  9.113534
569  4 0.0000  12.398561   1.167288 11.717401
570  4 0.0000   6.954087  -1.217765 14.321268
571  4 0.0000  38.576114  15.477609  1.301933
572  4 0.0000  33.131640  13.092556  3.905800
573  4 0.0000  27.687166  10.707502  6.509667
574  4 0.0000  22.242692   8.322449  9.113534
575  4 0.0000  16.798218   5.937395 11.717401
576  4 0.0000  11.353744   3.552342 14.321268
577  4 0.0000   4.864452   3.552342  1.301933
578  4 0.0000  -0.580022   1.167288  3.905800
579  4 0.0000  -6.024496  -1.217765  6.509667
580  4 0.0000 -11.468970  -3.602819  9.113534
581  4 0.0000 -16.913445  -5.987872 11.717401
582  4 0.0000 -22.357919  -8.372926 14.321268
583  4 0.0000   9.264109   8.322449  1.301933
584  4 0.0000   3.819635   5.937395  3.905800
585  4 0.0000  -1.624839   3.552342  6.509667
586  4 0.0000  -7.069313   1.167288  9.113534
587  4 0.0000 -12.513788  -1.217765 11.717401
588  4 0.0000 -17.958262  -3.602819 14.321268
589  4 0.0000  13.663766  13.092556  1.301933
590  4 0.0000   8.219292  10.707502  3.905800
591  4 0.0000   2.774818   8.322449  6.509667
592  4 0.0000  -2.669656   5.937395  9.113534
593  4 0.0000  -8.114131   3.552342 11.717401
594  4 0.0000 -13.558605   1.167288 14.321268
595  4 0.0000  18.063423  17.862663  1.301933
596  4 0.0000  12.618949  15.477609  3.905800
597  4 0.0000   7.174475  13.092556  6.509667
598  4 0.0000   1.730001  10.707502  9.113534
599  4 0.0000  -3.714474   8.322449 11.717401
600  4 0.0000  -9.158948   5.937395 14.321268
601  4 0.0000  11.353744   3.552342  1.301933
602  4 0.0000   5.909269   1.167288  3.905800
603  4 0.0000   0.464795  -1.217765  6.509667
604  4 0.0000  -4.979679  -3.602819  9.113534
605  4 0.0000 -10.424153  -5.987872 11.717401
606  4 0.0000 -15.868627  -8.372926 14.321268
607  4 0.0000  15.753401   8.322449  1.301933
608  4 0.0000  10.308926   5.937395  3.905800
609  4 0.0000   4.864452   3.552342  6.509667
610  4 0.0000  -0.580022   1.167288  9.113534
611  4 0.0000  -6.024496  -1.217765 11.717401
612  4 0.0000 -11.468970  -3.602819 14.321268
613  4 0.0000  20.153057  13.092556  1.301933
614  4 0.0000  14.708583  10.707502  3.905800
615  4 0.0000   9.264109   8.322449  6.509667
616  4 0.0000   3.819635   5.937395  9.113534
617  4 0.0000  -1.624839   3.552342 11.717401
618  4 0.0000  -7.069313   1.167288 14.321268
619  4 0.0000  24.552714  17.862663  1.301933
620  4 0.0000  19.108240  15.477609  3.905800
621  4 0.0000  13.663766  13.092556  6.509667
622  4 0.0000   8.219292  10.707502  9.113534
623  4 0.0000   2.774818   8.322449 11.717401
624  4 0.0000  -2.669656   5.937395 14.321268
625  4 0.0000  17.843035   3.552342  1.301933
626  4 0.0000  12.398561   1.167288  3.905800
627  4 0.0000   6.954087  -1.217765  6.509667
628  4 0.0000   1.509612  -3.602819  9.113534
629  4 0.0000  -3.934862  -5.987872 11.717401
630  4 0.0000  -9.379336  -8.372926 14.321268
631  4 0.0000  22.242692   8.322449  1.301933
632  4 0.0000  16.798218   5.937395  3.905800
633  4 0.0000  11.353744   3.552342  6.509667
634  4 0.0000   5.909269   1.167288  9.113534
635  4 0.0000   0.464795  -1.217765 11.717401
636  4 0.0000  -4.979679  -3.602819 14.321268
637  4 0.0000  26.642349  13.092556  1.301933
638  4 0.0000  21.197875  10.707502  3.905800
639  4 0.0000  15.753401   8.322449  6.509667
640  4 0.0000  10.308926   5.937395  9.113534
641  4 0.0000   4.864452   3.552342 11.717401
642  4 0.0000  -0.580022   1.167288 14.321268
643  4 0.0000  31.042006  17.862663  1.301933
644  4 0.0000  25.597532  15.477609  3.905800
645  4 0.0000  20.153057  13.092556  6.509667
646  4 0.0000  14.708583  10.707502  9.113534