Generated by pymatgen.io.lammps.data.LammpsData

112  atoms

  4  atom types

0.000000 12.978583  xlo xhi
0.000000 9.540214  ylo yhi
0.000000 10.415468  zlo zhi
8.799314 -21.777897 -9.540214  xy xz yz

Masses

1  40.078000
2  88.905850
3  26.981539
4  15.999400

Atoms

1    1 0.0000   7.009859  3.070799  0.000000
2    1 0.0000   1.565384  0.685746  2.603867
3    1 0.0000  -3.879090 -1.699308  5.207734
4    1 0.0000  -9.323564 -4.084361  7.811601
5    1 0.0000  11.409515  7.840906  0.000000
6    1 0.0000   5.965041  5.455853  2.603867
7    1 0.0000   0.520567  3.070799  5.207734
8    1 0.0000  -4.923907  0.685746  7.811601
9    1 0.0000  13.499150  3.070799  0.000000
10   1 0.0000   8.054676  0.685746  2.603867
11   1 0.0000   2.610202 -1.699308  5.207734
12   1 0.0000  -2.834273 -4.084361  7.811601
13   1 0.0000  17.898807  7.840906  0.000000
14   1 0.0000  12.454333  5.455853  2.603867
15   1 0.0000   7.009859  3.070799  5.207734
16   1 0.0000   1.565384  0.685746  7.811601
17   2 0.0000   3.904875  1.710603  0.000000
18   2 0.0000  -1.539599 -0.674450  2.603867
19   2 0.0000  -6.984073 -3.059504  5.207734
20   2 0.0000 -12.428548 -5.444557  7.811601
21   2 0.0000   8.304532  6.480710  0.000000
22   2 0.0000   2.860058  4.095657  2.603867
23   2 0.0000  -2.584416  1.710603  5.207734
24   2 0.0000  -8.028891 -0.674450  7.811601
25   2 0.0000  10.394166  1.710603 -0.000000
26   2 0.0000   4.949692 -0.674450  2.603867
27   2 0.0000  -0.494782 -3.059504  5.207734
28   2 0.0000  -5.939256 -5.444557  7.811601
29   2 0.0000  14.793823  6.480710  0.000000
30   2 0.0000   9.349349  4.095657  2.603867
31   2 0.0000   3.904875  1.710603  5.207734
32   2 0.0000  -1.539599 -0.674450  7.811601
33   3 0.0000   0.058038  0.025425  0.000000
34   3 0.0000  -5.386436 -2.359629  2.603867
35   3 0.0000 -10.830910 -4.744682  5.207734
36   3 0.0000 -16.275384 -7.129736  7.811601
37   3 0.0000   4.457695  4.795532  0.000000
38   3 0.0000  -0.986779  2.410478  2.603867
39   3 0.0000  -6.431253  0.025425  5.207734
40   3 0.0000 -11.875727 -2.359629  7.811601
41   3 0.0000   6.547329  0.025425  0.000000
42   3 0.0000   1.102855 -2.359629  2.603867
43   3 0.0000  -4.341619 -4.744682  5.207734
44   3 0.0000  -9.786093 -7.129736  7.811601
45   3 0.0000  10.946986  4.795532  0.000000
46   3 0.0000   5.502512  2.410478  2.603867
47   3 0.0000   0.058038  0.025425  5.207734
48   3 0.0000  -5.386436 -2.359629  7.811601
49   4 0.0000   9.067173  3.972044 -0.000000
50   4 0.0000   3.622699  1.586991  2.603867
51   4 0.0000  -1.821776 -0.798063  5.207734
52   4 0.0000  -7.266250 -3.183116  7.811601
53   4 0.0000  13.466830  8.742151 -0.000000
54   4 0.0000   8.022356  6.357098  2.603867
55   4 0.0000   2.577881  3.972044  5.207734
56   4 0.0000  -2.866593  1.586991  7.811601
57   4 0.0000  15.556464  3.972044  0.000000
58   4 0.0000  10.111990  1.586991  2.603867
59   4 0.0000   4.667516 -0.798063  5.207734
60   4 0.0000  -0.776958 -3.183116  7.811601
61   4 0.0000  19.956121  8.742151  0.000000
62   4 0.0000  14.511647  6.357098  2.603867
63   4 0.0000   9.067173  3.972044  5.207734
64   4 0.0000   3.622699  1.586991  7.811601
65   4 0.0000   1.853168  0.811815  0.000000
66   4 0.0000  -3.591306 -1.573239  2.603867
67   4 0.0000  -9.035780 -3.958292  5.207734
68   4 0.0000 -14.480254 -6.343346  7.811601
69   4 0.0000   6.252825  5.581922  0.000000
70   4 0.0000   0.808351  3.196868  2.603867
71   4 0.0000  -4.636123  0.811815  5.207734
72   4 0.0000 -10.080597 -1.573239  7.811601
73   4 0.0000   8.342460  0.811815  0.000000
74   4 0.0000   2.897986 -1.573239  2.603867
75   4 0.0000  -2.546489 -3.958292  5.207734
76   4 0.0000  -7.990963 -6.343346  7.811601
77   4 0.0000  12.742117  5.581922  0.000000
78   4 0.0000   7.297643  3.196868  2.603867
79   4 0.0000   1.853168  0.811815  5.207734
80   4 0.0000  -3.591306 -1.573239  7.811601
81   4 0.0000   5.909269  1.167288  1.301933
82   4 0.0000   0.464795 -1.217765  3.905800
83   4 0.0000  -4.979679 -3.602819  6.509667
84   4 0.0000 -10.424153 -5.987872  9.113534
85   4 0.0000  10.308926  5.937395  1.301933
86   4 0.0000   4.864452  3.552342  3.905800
87   4 0.0000  -0.580022  1.167288  6.509667
88   4 0.0000  -6.024496 -1.217765  9.113534
89   4 0.0000  12.398561  1.167288  1.301933
90   4 0.0000   6.954087 -1.217765  3.905800
91   4 0.0000   1.509612 -3.602819  6.509667
92   4 0.0000  -3.934862 -5.987872  9.113534
93   4 0.0000  16.798218  5.937395  1.301933
94   4 0.0000  11.353744  3.552342  3.905800
95   4 0.0000   5.909269  1.167288  6.509667
96   4 0.0000   0.464795 -1.217765  9.113534
97   4 0.0000   4.864452  3.552342  1.301933
98   4 0.0000  -0.580022  1.167288  3.905800
99   4 0.0000  -6.024496 -1.217765  6.509667
100  4 0.0000 -11.468970 -3.602819  9.113534
101  4 0.0000   9.264109  8.322449  1.301933
102  4 0.0000   3.819635  5.937395  3.905800
103  4 0.0000  -1.624839  3.552342  6.509667
104  4 0.0000  -7.069313  1.167288  9.113534
105  4 0.0000  11.353744  3.552342  1.301933
106  4 0.0000   5.909269  1.167288  3.905800
107  4 0.0000   0.464795 -1.217765  6.509667
108  4 0.0000  -4.979679 -3.602819  9.113534
109  4 0.0000  15.753401  8.322449  1.301933
110  4 0.0000  10.308926  5.937395  3.905800
111  4 0.0000   4.864452  3.552342  6.509667
112  4 0.0000  -0.580022  1.167288  9.113534

