Generated by pymatgen.io.lammps.data.LammpsData

64  atoms

 2  atom types

0.000000 8.337676  xlo xhi
0.000000 7.220639  ylo yhi
0.000000 27.118470  zlo zhi
-4.168838 0.000000 0.000000  xy xz yz

Masses

1  112.411
2   32.065

Atoms

1   1 0.0000  2.084419 1.203440  3.391330
2   1 0.0000  2.084419 1.203440 10.170947
3   1 0.0000  2.084419 1.203440 16.950565
4   1 0.0000  2.084419 1.203440 23.730182
5   1 0.0000 -0.000000 4.813760  3.391330
6   1 0.0000 -0.000000 4.813760 10.170947
7   1 0.0000 -0.000000 4.813760 16.950565
8   1 0.0000 -0.000000 4.813760 23.730182
9   1 0.0000  6.253257 1.203440  3.391330
10  1 0.0000  6.253257 1.203440 10.170947
11  1 0.0000  6.253257 1.203440 16.950565
12  1 0.0000  6.253257 1.203440 23.730182
13  1 0.0000  4.168838 4.813760  3.391330
14  1 0.0000  4.168838 4.813760 10.170947
15  1 0.0000  4.168838 4.813760 16.950565
16  1 0.0000  4.168838 4.813760 23.730182
17  1 0.0000 -0.000000 2.406880  0.001521
18  1 0.0000 -0.000000 2.406880  6.781139
19  1 0.0000 -0.000000 2.406880 13.560756
20  1 0.0000 -0.000000 2.406880 20.340373
21  1 0.0000 -2.084419 6.017199  0.001521
22  1 0.0000 -2.084419 6.017199  6.781139
23  1 0.0000 -2.084419 6.017199 13.560756
24  1 0.0000 -2.084419 6.017199 20.340373
25  1 0.0000  4.168838 2.406880  0.001521
26  1 0.0000  4.168838 2.406880  6.781139
27  1 0.0000  4.168838 2.406880 13.560756
28  1 0.0000  4.168838 2.406880 20.340373
29  1 0.0000  2.084419 6.017199  0.001521
30  1 0.0000  2.084419 6.017199  6.781139
31  1 0.0000  2.084419 6.017199 13.560756
32  1 0.0000  2.084419 6.017199 20.340373
33  2 0.0000  2.084419 1.203440  5.944203
34  2 0.0000  2.084419 1.203440 12.723821
35  2 0.0000  2.084419 1.203440 19.503438
36  2 0.0000  2.084419 1.203440 26.283056
37  2 0.0000 -0.000000 4.813760  5.944203
38  2 0.0000 -0.000000 4.813760 12.723821
39  2 0.0000 -0.000000 4.813760 19.503438
40  2 0.0000 -0.000000 4.813760 26.283056
41  2 0.0000  6.253257 1.203440  5.944203
42  2 0.0000  6.253257 1.203440 12.723821
43  2 0.0000  6.253257 1.203440 19.503438
44  2 0.0000  6.253257 1.203440 26.283056
45  2 0.0000  4.168838 4.813760  5.944203
46  2 0.0000  4.168838 4.813760 12.723821
47  2 0.0000  4.168838 4.813760 19.503438
48  2 0.0000  4.168838 4.813760 26.283056
49  2 0.0000 -0.000000 2.406880  2.554395
50  2 0.0000 -0.000000 2.406880  9.334012
51  2 0.0000 -0.000000 2.406880 16.113629
52  2 0.0000 -0.000000 2.406880 22.893247
53  2 0.0000 -2.084419 6.017199  2.554395
54  2 0.0000 -2.084419 6.017199  9.334012
55  2 0.0000 -2.084419 6.017199 16.113629
56  2 0.0000 -2.084419 6.017199 22.893247
57  2 0.0000  4.168838 2.406880  2.554395
58  2 0.0000  4.168838 2.406880  9.334012
59  2 0.0000  4.168838 2.406880 16.113629
60  2 0.0000  4.168838 2.406880 22.893247
61  2 0.0000  2.084419 6.017199  2.554395
62  2 0.0000  2.084419 6.017199  9.334012
63  2 0.0000  2.084419 6.017199 16.113629
64  2 0.0000  2.084419 6.017199 22.893247

