Generated by pymatgen.io.lammps.data.LammpsData

384  atoms

  2  atom types

0.000000 16.675353  xlo xhi
0.000000 14.441279  ylo yhi
0.000000 40.677704  zlo zhi
-8.337676 0.000000 0.000000  xy xz yz

Masses

1  112.411
2   32.065

Atoms

1    1 0.0000  2.084419  1.203440  3.391330
2    1 0.0000  2.084419  1.203440 10.170947
3    1 0.0000  2.084419  1.203440 16.950565
4    1 0.0000  2.084419  1.203440 23.730182
5    1 0.0000  2.084419  1.203440 30.509799
6    1 0.0000  2.084419  1.203440 37.289417
7    1 0.0000 -0.000000  4.813760  3.391330
8    1 0.0000 -0.000000  4.813760 10.170947
9    1 0.0000 -0.000000  4.813760 16.950565
10   1 0.0000 -0.000000  4.813760 23.730182
11   1 0.0000 -0.000000  4.813760 30.509799
12   1 0.0000 -0.000000  4.813760 37.289417
13   1 0.0000 -2.084419  8.424079  3.391330
14   1 0.0000 -2.084419  8.424079 10.170947
15   1 0.0000 -2.084419  8.424079 16.950565
16   1 0.0000 -2.084419  8.424079 23.730182
17   1 0.0000 -2.084419  8.424079 30.509799
18   1 0.0000 -2.084419  8.424079 37.289417
19   1 0.0000 -4.168838 12.034399  3.391330
20   1 0.0000 -4.168838 12.034399 10.170947
21   1 0.0000 -4.168838 12.034399 16.950565
22   1 0.0000 -4.168838 12.034399 23.730182
23   1 0.0000 -4.168838 12.034399 30.509799
24   1 0.0000 -4.168838 12.034399 37.289417
25   1 0.0000  6.253257  1.203440  3.391330
26   1 0.0000  6.253257  1.203440 10.170947
27   1 0.0000  6.253257  1.203440 16.950565
28   1 0.0000  6.253257  1.203440 23.730182
29   1 0.0000  6.253257  1.203440 30.509799
30   1 0.0000  6.253257  1.203440 37.289417
31   1 0.0000  4.168838  4.813760  3.391330
32   1 0.0000  4.168838  4.813760 10.170947
33   1 0.0000  4.168838  4.813760 16.950565
34   1 0.0000  4.168838  4.813760 23.730182
35   1 0.0000  4.168838  4.813760 30.509799
36   1 0.0000  4.168838  4.813760 37.289417
37   1 0.0000  2.084419  8.424079  3.391330
38   1 0.0000  2.084419  8.424079 10.170947
39   1 0.0000  2.084419  8.424079 16.950565
40   1 0.0000  2.084419  8.424079 23.730182
41   1 0.0000  2.084419  8.424079 30.509799
42   1 0.0000  2.084419  8.424079 37.289417
43   1 0.0000 -0.000000 12.034399  3.391330
44   1 0.0000 -0.000000 12.034399 10.170947
45   1 0.0000 -0.000000 12.034399 16.950565
46   1 0.0000 -0.000000 12.034399 23.730182
47   1 0.0000 -0.000000 12.034399 30.509799
48   1 0.0000 -0.000000 12.034399 37.289417
49   1 0.0000 10.422095  1.203440  3.391330
50   1 0.0000 10.422095  1.203440 10.170947
51   1 0.0000 10.422095  1.203440 16.950565
52   1 0.0000 10.422095  1.203440 23.730182
53   1 0.0000 10.422095  1.203440 30.509799
54   1 0.0000 10.422095  1.203440 37.289417
55   1 0.0000  8.337676  4.813760  3.391330
56   1 0.0000  8.337676  4.813760 10.170947
57   1 0.0000  8.337676  4.813760 16.950565
58   1 0.0000  8.337676  4.813760 23.730182
59   1 0.0000  8.337676  4.813760 30.509799
60   1 0.0000  8.337676  4.813760 37.289417
61   1 0.0000  6.253257  8.424079  3.391330
62   1 0.0000  6.253257  8.424079 10.170947
63   1 0.0000  6.253257  8.424079 16.950565
64   1 0.0000  6.253257  8.424079 23.730182
65   1 0.0000  6.253257  8.424079 30.509799
66   1 0.0000  6.253257  8.424079 37.289417
67   1 0.0000  4.168838 12.034399  3.391330
68   1 0.0000  4.168838 12.034399 10.170947
69   1 0.0000  4.168838 12.034399 16.950565
70   1 0.0000  4.168838 12.034399 23.730182
71   1 0.0000  4.168838 12.034399 30.509799
72   1 0.0000  4.168838 12.034399 37.289417
73   1 0.0000 14.590933  1.203440  3.391330
74   1 0.0000 14.590933  1.203440 10.170947
75   1 0.0000 14.590933  1.203440 16.950565
76   1 0.0000 14.590933  1.203440 23.730182
77   1 0.0000 14.590933  1.203440 30.509799
78   1 0.0000 14.590933  1.203440 37.289417
79   1 0.0000 12.506514  4.813760  3.391330
80   1 0.0000 12.506514  4.813760 10.170947
81   1 0.0000 12.506514  4.813760 16.950565
82   1 0.0000 12.506514  4.813760 23.730182
83   1 0.0000 12.506514  4.813760 30.509799
84   1 0.0000 12.506514  4.813760 37.289417
85   1 0.0000 10.422095  8.424079  3.391330
86   1 0.0000 10.422095  8.424079 10.170947
87   1 0.0000 10.422095  8.424079 16.950565
88   1 0.0000 10.422095  8.424079 23.730182
89   1 0.0000 10.422095  8.424079 30.509799
90   1 0.0000 10.422095  8.424079 37.289417
91   1 0.0000  8.337676 12.034399  3.391330
92   1 0.0000  8.337676 12.034399 10.170947
93   1 0.0000  8.337676 12.034399 16.950565
94   1 0.0000  8.337676 12.034399 23.730182
95   1 0.0000  8.337676 12.034399 30.509799
96   1 0.0000  8.337676 12.034399 37.289417
97   1 0.0000 -0.000000  2.406880  0.001521
98   1 0.0000 -0.000000  2.406880  6.781139
99   1 0.0000 -0.000000  2.406880 13.560756
100  1 0.0000 -0.000000  2.406880 20.340373
101  1 0.0000 -0.000000  2.406880 27.119991
102  1 0.0000 -0.000000  2.406880 33.899608
103  1 0.0000 -2.084419  6.017199  0.001521
104  1 0.0000 -2.084419  6.017199  6.781139
105  1 0.0000 -2.084419  6.017199 13.560756
106  1 0.0000 -2.084419  6.017199 20.340373
107  1 0.0000 -2.084419  6.017199 27.119991
108  1 0.0000 -2.084419  6.017199 33.899608
109  1 0.0000 -4.168838  9.627519  0.001521
110  1 0.0000 -4.168838  9.627519  6.781139
111  1 0.0000 -4.168838  9.627519 13.560756
112  1 0.0000 -4.168838  9.627519 20.340373
113  1 0.0000 -4.168838  9.627519 27.119991
114  1 0.0000 -4.168838  9.627519 33.899608
115  1 0.0000 -6.253257 13.237839  0.001521
116  1 0.0000 -6.253257 13.237839  6.781139
117  1 0.0000 -6.253257 13.237839 13.560756
118  1 0.0000 -6.253257 13.237839 20.340373
119  1 0.0000 -6.253257 13.237839 27.119991
120  1 0.0000 -6.253257 13.237839 33.899608
121  1 0.0000  4.168838  2.406880  0.001521
122  1 0.0000  4.168838  2.406880  6.781139
123  1 0.0000  4.168838  2.406880 13.560756
124  1 0.0000  4.168838  2.406880 20.340373
125  1 0.0000  4.168838  2.406880 27.119991
126  1 0.0000  4.168838  2.406880 33.899608
127  1 0.0000  2.084419  6.017199  0.001521
128  1 0.0000  2.084419  6.017199  6.781139
129  1 0.0000  2.084419  6.017199 13.560756
130  1 0.0000  2.084419  6.017199 20.340373
131  1 0.0000  2.084419  6.017199 27.119991
132  1 0.0000  2.084419  6.017199 33.899608
133  1 0.0000 -0.000000  9.627519  0.001521
134  1 0.0000 -0.000000  9.627519  6.781139
135  1 0.0000 -0.000000  9.627519 13.560756
136  1 0.0000 -0.000000  9.627519 20.340373
137  1 0.0000 -0.000000  9.627519 27.119991
138  1 0.0000 -0.000000  9.627519 33.899608
139  1 0.0000 -2.084419 13.237839  0.001521
140  1 0.0000 -2.084419 13.237839  6.781139
141  1 0.0000 -2.084419 13.237839 13.560756
142  1 0.0000 -2.084419 13.237839 20.340373
143  1 0.0000 -2.084419 13.237839 27.119991
144  1 0.0000 -2.084419 13.237839 33.899608
145  1 0.0000  8.337676  2.406880  0.001521
146  1 0.0000  8.337676  2.406880  6.781139
147  1 0.0000  8.337676  2.406880 13.560756
148  1 0.0000  8.337676  2.406880 20.340373
149  1 0.0000  8.337676  2.406880 27.119991
150  1 0.0000  8.337676  2.406880 33.899608
151  1 0.0000  6.253257  6.017199  0.001521
152  1 0.0000  6.253257  6.017199  6.781139
153  1 0.0000  6.253257  6.017199 13.560756
154  1 0.0000  6.253257  6.017199 20.340373
155  1 0.0000  6.253257  6.017199 27.119991
156  1 0.0000  6.253257  6.017199 33.899608
157  1 0.0000  4.168838  9.627519  0.001521
158  1 0.0000  4.168838  9.627519  6.781139
159  1 0.0000  4.168838  9.627519 13.560756
160  1 0.0000  4.168838  9.627519 20.340373
161  1 0.0000  4.168838  9.627519 27.119991
162  1 0.0000  4.168838  9.627519 33.899608
163  1 0.0000  2.084419 13.237839  0.001521
164  1 0.0000  2.084419 13.237839  6.781139
165  1 0.0000  2.084419 13.237839 13.560756
166  1 0.0000  2.084419 13.237839 20.340373
167  1 0.0000  2.084419 13.237839 27.119991
168  1 0.0000  2.084419 13.237839 33.899608
169  1 0.0000 12.506514  2.406880  0.001521
170  1 0.0000 12.506514  2.406880  6.781139
171  1 0.0000 12.506514  2.406880 13.560756
172  1 0.0000 12.506514  2.406880 20.340373
173  1 0.0000 12.506514  2.406880 27.119991
174  1 0.0000 12.506514  2.406880 33.899608
175  1 0.0000 10.422095  6.017199  0.001521
176  1 0.0000 10.422095  6.017199  6.781139
177  1 0.0000 10.422095  6.017199 13.560756
178  1 0.0000 10.422095  6.017199 20.340373
179  1 0.0000 10.422095  6.017199 27.119991
180  1 0.0000 10.422095  6.017199 33.899608
181  1 0.0000  8.337676  9.627519  0.001521
182  1 0.0000  8.337676  9.627519  6.781139
183  1 0.0000  8.337676  9.627519 13.560756
184  1 0.0000  8.337676  9.627519 20.340373
185  1 0.0000  8.337676  9.627519 27.119991
186  1 0.0000  8.337676  9.627519 33.899608
187  1 0.0000  6.253257 13.237839  0.001521
188  1 0.0000  6.253257 13.237839  6.781139
189  1 0.0000  6.253257 13.237839 13.560756
190  1 0.0000  6.253257 13.237839 20.340373
191  1 0.0000  6.253257 13.237839 27.119991
192  1 0.0000  6.253257 13.237839 33.899608
193  2 0.0000  2.084419  1.203440  5.944203
194  2 0.0000  2.084419  1.203440 12.723821
195  2 0.0000  2.084419  1.203440 19.503438
196  2 0.0000  2.084419  1.203440 26.283056
197  2 0.0000  2.084419  1.203440 33.062673
198  2 0.0000  2.084419  1.203440 39.842290
199  2 0.0000 -0.000000  4.813760  5.944203
200  2 0.0000 -0.000000  4.813760 12.723821
201  2 0.0000 -0.000000  4.813760 19.503438
202  2 0.0000 -0.000000  4.813760 26.283056
203  2 0.0000 -0.000000  4.813760 33.062673
204  2 0.0000 -0.000000  4.813760 39.842290
205  2 0.0000 -2.084419  8.424079  5.944203
206  2 0.0000 -2.084419  8.424079 12.723821
207  2 0.0000 -2.084419  8.424079 19.503438
208  2 0.0000 -2.084419  8.424079 26.283056
209  2 0.0000 -2.084419  8.424079 33.062673
210  2 0.0000 -2.084419  8.424079 39.842290
211  2 0.0000 -4.168838 12.034399  5.944203
212  2 0.0000 -4.168838 12.034399 12.723821
213  2 0.0000 -4.168838 12.034399 19.503438
214  2 0.0000 -4.168838 12.034399 26.283056
215  2 0.0000 -4.168838 12.034399 33.062673
216  2 0.0000 -4.168838 12.034399 39.842290
217  2 0.0000  6.253257  1.203440  5.944203
218  2 0.0000  6.253257  1.203440 12.723821
219  2 0.0000  6.253257  1.203440 19.503438
220  2 0.0000  6.253257  1.203440 26.283056
221  2 0.0000  6.253257  1.203440 33.062673
222  2 0.0000  6.253257  1.203440 39.842290
223  2 0.0000  4.168838  4.813760  5.944203
224  2 0.0000  4.168838  4.813760 12.723821
225  2 0.0000  4.168838  4.813760 19.503438
226  2 0.0000  4.168838  4.813760 26.283056
227  2 0.0000  4.168838  4.813760 33.062673
228  2 0.0000  4.168838  4.813760 39.842290
229  2 0.0000  2.084419  8.424079  5.944203
230  2 0.0000  2.084419  8.424079 12.723821
231  2 0.0000  2.084419  8.424079 19.503438
232  2 0.0000  2.084419  8.424079 26.283056
233  2 0.0000  2.084419  8.424079 33.062673
234  2 0.0000  2.084419  8.424079 39.842290
235  2 0.0000 -0.000000 12.034399  5.944203
236  2 0.0000 -0.000000 12.034399 12.723821
237  2 0.0000 -0.000000 12.034399 19.503438
238  2 0.0000 -0.000000 12.034399 26.283056
239  2 0.0000 -0.000000 12.034399 33.062673
240  2 0.0000 -0.000000 12.034399 39.842290
241  2 0.0000 10.422095  1.203440  5.944203
242  2 0.0000 10.422095  1.203440 12.723821
243  2 0.0000 10.422095  1.203440 19.503438
244  2 0.0000 10.422095  1.203440 26.283056
245  2 0.0000 10.422095  1.203440 33.062673
246  2 0.0000 10.422095  1.203440 39.842290
247  2 0.0000  8.337676  4.813760  5.944203
248  2 0.0000  8.337676  4.813760 12.723821
249  2 0.0000  8.337676  4.813760 19.503438
250  2 0.0000  8.337676  4.813760 26.283056
251  2 0.0000  8.337676  4.813760 33.062673
252  2 0.0000  8.337676  4.813760 39.842290
253  2 0.0000  6.253257  8.424079  5.944203
254  2 0.0000  6.253257  8.424079 12.723821
255  2 0.0000  6.253257  8.424079 19.503438
256  2 0.0000  6.253257  8.424079 26.283056
257  2 0.0000  6.253257  8.424079 33.062673
258  2 0.0000  6.253257  8.424079 39.842290
259  2 0.0000  4.168838 12.034399  5.944203
260  2 0.0000  4.168838 12.034399 12.723821
261  2 0.0000  4.168838 12.034399 19.503438
262  2 0.0000  4.168838 12.034399 26.283056
263  2 0.0000  4.168838 12.034399 33.062673
264  2 0.0000  4.168838 12.034399 39.842290
265  2 0.0000 14.590933  1.203440  5.944203
266  2 0.0000 14.590933  1.203440 12.723821
267  2 0.0000 14.590933  1.203440 19.503438
268  2 0.0000 14.590933  1.203440 26.283056
269  2 0.0000 14.590933  1.203440 33.062673
270  2 0.0000 14.590933  1.203440 39.842290
271  2 0.0000 12.506514  4.813760  5.944203
272  2 0.0000 12.506514  4.813760 12.723821
273  2 0.0000 12.506514  4.813760 19.503438
274  2 0.0000 12.506514  4.813760 26.283056
275  2 0.0000 12.506514  4.813760 33.062673
276  2 0.0000 12.506514  4.813760 39.842290
277  2 0.0000 10.422095  8.424079  5.944203
278  2 0.0000 10.422095  8.424079 12.723821
279  2 0.0000 10.422095  8.424079 19.503438
280  2 0.0000 10.422095  8.424079 26.283056
281  2 0.0000 10.422095  8.424079 33.062673
282  2 0.0000 10.422095  8.424079 39.842290
283  2 0.0000  8.337676 12.034399  5.944203
284  2 0.0000  8.337676 12.034399 12.723821
285  2 0.0000  8.337676 12.034399 19.503438
286  2 0.0000  8.337676 12.034399 26.283056
287  2 0.0000  8.337676 12.034399 33.062673
288  2 0.0000  8.337676 12.034399 39.842290
289  2 0.0000 -0.000000  2.406880  2.554395
290  2 0.0000 -0.000000  2.406880  9.334012
291  2 0.0000 -0.000000  2.406880 16.113629
292  2 0.0000 -0.000000  2.406880 22.893247
293  2 0.0000 -0.000000  2.406880 29.672864
294  2 0.0000 -0.000000  2.406880 36.452482
295  2 0.0000 -2.084419  6.017199  2.554395
296  2 0.0000 -2.084419  6.017199  9.334012
297  2 0.0000 -2.084419  6.017199 16.113629
298  2 0.0000 -2.084419  6.017199 22.893247
299  2 0.0000 -2.084419  6.017199 29.672864
300  2 0.0000 -2.084419  6.017199 36.452482
301  2 0.0000 -4.168838  9.627519  2.554395
302  2 0.0000 -4.168838  9.627519  9.334012
303  2 0.0000 -4.168838  9.627519 16.113629
304  2 0.0000 -4.168838  9.627519 22.893247
305  2 0.0000 -4.168838  9.627519 29.672864
306  2 0.0000 -4.168838  9.627519 36.452482
307  2 0.0000 -6.253257 13.237839  2.554395
308  2 0.0000 -6.253257 13.237839  9.334012
309  2 0.0000 -6.253257 13.237839 16.113629
310  2 0.0000 -6.253257 13.237839 22.893247
311  2 0.0000 -6.253257 13.237839 29.672864
312  2 0.0000 -6.253257 13.237839 36.452482
313  2 0.0000  4.168838  2.406880  2.554395
314  2 0.0000  4.168838  2.406880  9.334012
315  2 0.0000  4.168838  2.406880 16.113629
316  2 0.0000  4.168838  2.406880 22.893247
317  2 0.0000  4.168838  2.406880 29.672864
318  2 0.0000  4.168838  2.406880 36.452482
319  2 0.0000  2.084419  6.017199  2.554395
320  2 0.0000  2.084419  6.017199  9.334012
321  2 0.0000  2.084419  6.017199 16.113629
322  2 0.0000  2.084419  6.017199 22.893247
323  2 0.0000  2.084419  6.017199 29.672864
324  2 0.0000  2.084419  6.017199 36.452482
325  2 0.0000 -0.000000  9.627519  2.554395
326  2 0.0000 -0.000000  9.627519  9.334012
327  2 0.0000 -0.000000  9.627519 16.113629
328  2 0.0000 -0.000000  9.627519 22.893247
329  2 0.0000 -0.000000  9.627519 29.672864
330  2 0.0000 -0.000000  9.627519 36.452482
331  2 0.0000 -2.084419 13.237839  2.554395
332  2 0.0000 -2.084419 13.237839  9.334012
333  2 0.0000 -2.084419 13.237839 16.113629
334  2 0.0000 -2.084419 13.237839 22.893247
335  2 0.0000 -2.084419 13.237839 29.672864
336  2 0.0000 -2.084419 13.237839 36.452482
337  2 0.0000  8.337676  2.406880  2.554395
338  2 0.0000  8.337676  2.406880  9.334012
339  2 0.0000  8.337676  2.406880 16.113629
340  2 0.0000  8.337676  2.406880 22.893247
341  2 0.0000  8.337676  2.406880 29.672864
342  2 0.0000  8.337676  2.406880 36.452482
343  2 0.0000  6.253257  6.017199  2.554395
344  2 0.0000  6.253257  6.017199  9.334012
345  2 0.0000  6.253257  6.017199 16.113629
346  2 0.0000  6.253257  6.017199 22.893247
347  2 0.0000  6.253257  6.017199 29.672864
348  2 0.0000  6.253257  6.017199 36.452482
349  2 0.0000  4.168838  9.627519  2.554395
350  2 0.0000  4.168838  9.627519  9.334012
351  2 0.0000  4.168838  9.627519 16.113629
352  2 0.0000  4.168838  9.627519 22.893247
353  2 0.0000  4.168838  9.627519 29.672864
354  2 0.0000  4.168838  9.627519 36.452482
355  2 0.0000  2.084419 13.237839  2.554395
356  2 0.0000  2.084419 13.237839  9.334012
357  2 0.0000  2.084419 13.237839 16.113629
358  2 0.0000  2.084419 13.237839 22.893247
359  2 0.0000  2.084419 13.237839 29.672864
360  2 0.0000  2.084419 13.237839 36.452482
361  2 0.0000 12.506514  2.406880  2.554395
362  2 0.0000 12.506514  2.406880  9.334012
363  2 0.0000 12.506514  2.406880 16.113629
364  2 0.0000 12.506514  2.406880 22.893247
365  2 0.0000 12.506514  2.406880 29.672864
366  2 0.0000 12.506514  2.406880 36.452482
367  2 0.0000 10.422095  6.017199  2.554395
368  2 0.0000 10.422095  6.017199  9.334012
369  2 0.0000 10.422095  6.017199 16.113629
370  2 0.0000 10.422095  6.017199 22.893247
371  2 0.0000 10.422095  6.017199 29.672864
372  2 0.0000 10.422095  6.017199 36.452482
373  2 0.0000  8.337676  9.627519  2.554395
374  2 0.0000  8.337676  9.627519  9.334012
375  2 0.0000  8.337676  9.627519 16.113629
376  2 0.0000  8.337676  9.627519 22.893247
377  2 0.0000  8.337676  9.627519 29.672864
378  2 0.0000  8.337676  9.627519 36.452482
379  2 0.0000  6.253257 13.237839  2.554395
380  2 0.0000  6.253257 13.237839  9.334012
381  2 0.0000  6.253257 13.237839 16.113629
382  2 0.0000  6.253257 13.237839 22.893247
383  2 0.0000  6.253257 13.237839 29.672864
384  2 0.0000  6.253257 13.237839 36.452482

