Generated by pymatgen.io.lammps.data.LammpsData

256  atoms

  3  atom types

0.000000 9.726962  xlo xhi
0.000000 12.189632  ylo yhi
0.000000 44.915260  zlo zhi

Masses

1  24.30500
2  47.86700
3  92.90638

Atoms

1    1 0.0000 0.000000  1.572310  0.838826
2    1 0.0000 0.000000  1.572310 12.067641
3    1 0.0000 0.000000  1.572310 23.296456
4    1 0.0000 0.000000  1.572310 34.525271
5    1 0.0000 0.000000  7.667126  0.838826
6    1 0.0000 0.000000  7.667126 12.067641
7    1 0.0000 0.000000  7.667126 23.296456
8    1 0.0000 0.000000  7.667126 34.525271
9    1 0.0000 4.863481  1.572310  0.838826
10   1 0.0000 4.863481  1.572310 12.067641
11   1 0.0000 4.863481  1.572310 23.296456
12   1 0.0000 4.863481  1.572310 34.525271
13   1 0.0000 4.863481  7.667126  0.838826
14   1 0.0000 4.863481  7.667126 12.067641
15   1 0.0000 4.863481  7.667126 23.296456
16   1 0.0000 4.863481  7.667126 34.525271
17   1 0.0000 0.000000  4.522506  0.838826
18   1 0.0000 0.000000  4.522506 12.067641
19   1 0.0000 0.000000  4.522506 23.296456
20   1 0.0000 0.000000  4.522506 34.525271
21   1 0.0000 0.000000 10.617322  0.838826
22   1 0.0000 0.000000 10.617322 12.067641
23   1 0.0000 0.000000 10.617322 23.296456
24   1 0.0000 0.000000 10.617322 34.525271
25   1 0.0000 4.863481  4.522506  0.838826
26   1 0.0000 4.863481  4.522506 12.067641
27   1 0.0000 4.863481  4.522506 23.296456
28   1 0.0000 4.863481  4.522506 34.525271
29   1 0.0000 4.863481 10.617322  0.838826
30   1 0.0000 4.863481 10.617322 12.067641
31   1 0.0000 4.863481 10.617322 23.296456
32   1 0.0000 4.863481 10.617322 34.525271
33   1 0.0000 0.000000  0.000000  3.665793
34   1 0.0000 0.000000  0.000000 14.894608
35   1 0.0000 0.000000  0.000000 26.123423
36   1 0.0000 0.000000  0.000000 37.352238
37   1 0.0000 0.000000  6.094816  3.665793
38   1 0.0000 0.000000  6.094816 14.894608
39   1 0.0000 0.000000  6.094816 26.123423
40   1 0.0000 0.000000  6.094816 37.352238
41   1 0.0000 4.863481  0.000000  3.665793
42   1 0.0000 4.863481  0.000000 14.894608
43   1 0.0000 4.863481  0.000000 26.123423
44   1 0.0000 4.863481  0.000000 37.352238
45   1 0.0000 4.863481  6.094816  3.665793
46   1 0.0000 4.863481  6.094816 14.894608
47   1 0.0000 4.863481  6.094816 26.123423
48   1 0.0000 4.863481  6.094816 37.352238
49   1 0.0000 2.431741  4.530624  4.789157
50   1 0.0000 2.431741  4.530624 16.017972
51   1 0.0000 2.431741  4.530624 27.246787
52   1 0.0000 2.431741  4.530624 38.475602
53   1 0.0000 2.431741 10.625440  4.789157
54   1 0.0000 2.431741 10.625440 16.017972
55   1 0.0000 2.431741 10.625440 27.246787
56   1 0.0000 2.431741 10.625440 38.475602
57   1 0.0000 7.295222  4.530624  4.789157
58   1 0.0000 7.295222  4.530624 16.017972
59   1 0.0000 7.295222  4.530624 27.246787
60   1 0.0000 7.295222  4.530624 38.475602
61   1 0.0000 7.295222 10.625440  4.789157
62   1 0.0000 7.295222 10.625440 16.017972
63   1 0.0000 7.295222 10.625440 27.246787
64   1 0.0000 7.295222 10.625440 38.475602
65   1 0.0000 2.431741  1.564192  4.789157
66   1 0.0000 2.431741  1.564192 16.017972
67   1 0.0000 2.431741  1.564192 27.246787
68   1 0.0000 2.431741  1.564192 38.475602
69   1 0.0000 2.431741  7.659008  4.789157
70   1 0.0000 2.431741  7.659008 16.017972
71   1 0.0000 2.431741  7.659008 27.246787
72   1 0.0000 2.431741  7.659008 38.475602
73   1 0.0000 7.295222  1.564192  4.789157
74   1 0.0000 7.295222  1.564192 16.017972
75   1 0.0000 7.295222  1.564192 27.246787
76   1 0.0000 7.295222  1.564192 38.475602
77   1 0.0000 7.295222  7.659008  4.789157
78   1 0.0000 7.295222  7.659008 16.017972
79   1 0.0000 7.295222  7.659008 27.246787
80   1 0.0000 7.295222  7.659008 38.475602
81   1 0.0000 2.431741  0.000000  1.939654
82   1 0.0000 2.431741  0.000000 13.168469
83   1 0.0000 2.431741  0.000000 24.397284
84   1 0.0000 2.431741  0.000000 35.626099
85   1 0.0000 2.431741  6.094816  1.939654
86   1 0.0000 2.431741  6.094816 13.168469
87   1 0.0000 2.431741  6.094816 24.397284
88   1 0.0000 2.431741  6.094816 35.626099
89   1 0.0000 7.295222  0.000000  1.939654
90   1 0.0000 7.295222  0.000000 13.168469
91   1 0.0000 7.295222  0.000000 24.397284
92   1 0.0000 7.295222  0.000000 35.626099
93   1 0.0000 7.295222  6.094816  1.939654
94   1 0.0000 7.295222  6.094816 13.168469
95   1 0.0000 7.295222  6.094816 24.397284
96   1 0.0000 7.295222  6.094816 35.626099
97   1 0.0000 0.000000  4.619718  6.453234
98   1 0.0000 0.000000  4.619718 17.682049
99   1 0.0000 0.000000  4.619718 28.910864
100  1 0.0000 0.000000  4.619718 40.139679
101  1 0.0000 0.000000 10.714534  6.453234
102  1 0.0000 0.000000 10.714534 17.682049
103  1 0.0000 0.000000 10.714534 28.910864
104  1 0.0000 0.000000 10.714534 40.139679
105  1 0.0000 4.863481  4.619718  6.453234
106  1 0.0000 4.863481  4.619718 17.682049
107  1 0.0000 4.863481  4.619718 28.910864
108  1 0.0000 4.863481  4.619718 40.139679
109  1 0.0000 4.863481 10.714534  6.453234
110  1 0.0000 4.863481 10.714534 17.682049
111  1 0.0000 4.863481 10.714534 28.910864
112  1 0.0000 4.863481 10.714534 40.139679
113  1 0.0000 0.000000  1.475098  6.453234
114  1 0.0000 0.000000  1.475098 17.682049
115  1 0.0000 0.000000  1.475098 28.910864
116  1 0.0000 0.000000  1.475098 40.139679
117  1 0.0000 0.000000  7.569914  6.453234
118  1 0.0000 0.000000  7.569914 17.682049
119  1 0.0000 0.000000  7.569914 28.910864
120  1 0.0000 0.000000  7.569914 40.139679
121  1 0.0000 4.863481  1.475098  6.453234
122  1 0.0000 4.863481  1.475098 17.682049
123  1 0.0000 4.863481  1.475098 28.910864
124  1 0.0000 4.863481  1.475098 40.139679
125  1 0.0000 4.863481  7.569914  6.453234
126  1 0.0000 4.863481  7.569914 17.682049
127  1 0.0000 4.863481  7.569914 28.910864
128  1 0.0000 4.863481  7.569914 40.139679
129  1 0.0000 0.000000  3.047408  9.280200
130  1 0.0000 0.000000  3.047408 20.509015
131  1 0.0000 0.000000  3.047408 31.737830
132  1 0.0000 0.000000  3.047408 42.966645
133  1 0.0000 0.000000  9.142224  9.280200
134  1 0.0000 0.000000  9.142224 20.509015
135  1 0.0000 0.000000  9.142224 31.737830
136  1 0.0000 0.000000  9.142224 42.966645
137  1 0.0000 4.863481  3.047408  9.280200
138  1 0.0000 4.863481  3.047408 20.509015
139  1 0.0000 4.863481  3.047408 31.737830
140  1 0.0000 4.863481  3.047408 42.966645
141  1 0.0000 4.863481  9.142224  9.280200
142  1 0.0000 4.863481  9.142224 20.509015
143  1 0.0000 4.863481  9.142224 31.737830
144  1 0.0000 4.863481  9.142224 42.966645
145  1 0.0000 2.431741  1.483216 10.403564
146  1 0.0000 2.431741  1.483216 21.632379
147  1 0.0000 2.431741  1.483216 32.861194
148  1 0.0000 2.431741  1.483216 44.090009
149  1 0.0000 2.431741  7.578032 10.403564
150  1 0.0000 2.431741  7.578032 21.632379
151  1 0.0000 2.431741  7.578032 32.861194
152  1 0.0000 2.431741  7.578032 44.090009
153  1 0.0000 7.295222  1.483216 10.403564
154  1 0.0000 7.295222  1.483216 21.632379
155  1 0.0000 7.295222  1.483216 32.861194
156  1 0.0000 7.295222  1.483216 44.090009
157  1 0.0000 7.295222  7.578032 10.403564
158  1 0.0000 7.295222  7.578032 21.632379
159  1 0.0000 7.295222  7.578032 32.861194
160  1 0.0000 7.295222  7.578032 44.090009
161  1 0.0000 2.431741  4.611600 10.403564
162  1 0.0000 2.431741  4.611600 21.632379
163  1 0.0000 2.431741  4.611600 32.861194
164  1 0.0000 2.431741  4.611600 44.090009
165  1 0.0000 2.431741 10.706416 10.403564
166  1 0.0000 2.431741 10.706416 21.632379
167  1 0.0000 2.431741 10.706416 32.861194
168  1 0.0000 2.431741 10.706416 44.090009
169  1 0.0000 7.295222  4.611600 10.403564
170  1 0.0000 7.295222  4.611600 21.632379
171  1 0.0000 7.295222  4.611600 32.861194
172  1 0.0000 7.295222  4.611600 44.090009
173  1 0.0000 7.295222 10.706416 10.403564
174  1 0.0000 7.295222 10.706416 21.632379
175  1 0.0000 7.295222 10.706416 32.861194
176  1 0.0000 7.295222 10.706416 44.090009
177  1 0.0000 2.431741  3.047408  7.554062
178  1 0.0000 2.431741  3.047408 18.782877
179  1 0.0000 2.431741  3.047408 30.011692
180  1 0.0000 2.431741  3.047408 41.240507
181  1 0.0000 2.431741  9.142224  7.554062
182  1 0.0000 2.431741  9.142224 18.782877
183  1 0.0000 2.431741  9.142224 30.011692
184  1 0.0000 2.431741  9.142224 41.240507
185  1 0.0000 7.295222  3.047408  7.554062
186  1 0.0000 7.295222  3.047408 18.782877
187  1 0.0000 7.295222  3.047408 30.011692
188  1 0.0000 7.295222  3.047408 41.240507
189  1 0.0000 7.295222  9.142224  7.554062
190  1 0.0000 7.295222  9.142224 18.782877
191  1 0.0000 7.295222  9.142224 30.011692
192  1 0.0000 7.295222  9.142224 41.240507
193  2 0.0000 0.000000  3.047408  3.359145
194  2 0.0000 0.000000  3.047408 14.587960
195  2 0.0000 0.000000  3.047408 25.816775
196  2 0.0000 0.000000  3.047408 37.045590
197  2 0.0000 0.000000  9.142224  3.359145
198  2 0.0000 0.000000  9.142224 14.587960
199  2 0.0000 0.000000  9.142224 25.816775
200  2 0.0000 0.000000  9.142224 37.045590
201  2 0.0000 4.863481  3.047408  3.359145
202  2 0.0000 4.863481  3.047408 14.587960
203  2 0.0000 4.863481  3.047408 25.816775
204  2 0.0000 4.863481  3.047408 37.045590
205  2 0.0000 4.863481  9.142224  3.359145
206  2 0.0000 4.863481  9.142224 14.587960
207  2 0.0000 4.863481  9.142224 25.816775
208  2 0.0000 4.863481  9.142224 37.045590
209  2 0.0000 0.000000  0.000000  8.973552
210  2 0.0000 0.000000  0.000000 20.202367
211  2 0.0000 0.000000  0.000000 31.431182
212  2 0.0000 0.000000  0.000000 42.659997
213  2 0.0000 0.000000  6.094816  8.973552
214  2 0.0000 0.000000  6.094816 20.202367
215  2 0.0000 0.000000  6.094816 31.431182
216  2 0.0000 0.000000  6.094816 42.659997
217  2 0.0000 4.863481  0.000000  8.973552
218  2 0.0000 4.863481  0.000000 20.202367
219  2 0.0000 4.863481  0.000000 31.431182
220  2 0.0000 4.863481  0.000000 42.659997
221  2 0.0000 4.863481  6.094816  8.973552
222  2 0.0000 4.863481  6.094816 20.202367
223  2 0.0000 4.863481  6.094816 31.431182
224  2 0.0000 4.863481  6.094816 42.659997
225  3 0.0000 2.431741  3.047408  2.237049
226  3 0.0000 2.431741  3.047408 13.465864
227  3 0.0000 2.431741  3.047408 24.694679
228  3 0.0000 2.431741  3.047408 35.923494
229  3 0.0000 2.431741  9.142224  2.237049
230  3 0.0000 2.431741  9.142224 13.465864
231  3 0.0000 2.431741  9.142224 24.694679
232  3 0.0000 2.431741  9.142224 35.923494
233  3 0.0000 7.295222  3.047408  2.237049
234  3 0.0000 7.295222  3.047408 13.465864
235  3 0.0000 7.295222  3.047408 24.694679
236  3 0.0000 7.295222  3.047408 35.923494
237  3 0.0000 7.295222  9.142224  2.237049
238  3 0.0000 7.295222  9.142224 13.465864
239  3 0.0000 7.295222  9.142224 24.694679
240  3 0.0000 7.295222  9.142224 35.923494
241  3 0.0000 2.431741  0.000000  7.851457
242  3 0.0000 2.431741  0.000000 19.080272
243  3 0.0000 2.431741  0.000000 30.309087
244  3 0.0000 2.431741  0.000000 41.537902
245  3 0.0000 2.431741  6.094816  7.851457
246  3 0.0000 2.431741  6.094816 19.080272
247  3 0.0000 2.431741  6.094816 30.309087
248  3 0.0000 2.431741  6.094816 41.537902
249  3 0.0000 7.295222  0.000000  7.851457
250  3 0.0000 7.295222  0.000000 19.080272
251  3 0.0000 7.295222  0.000000 30.309087
252  3 0.0000 7.295222  0.000000 41.537902
253  3 0.0000 7.295222  6.094816  7.851457
254  3 0.0000 7.295222  6.094816 19.080272
255  3 0.0000 7.295222  6.094816 30.309087
256  3 0.0000 7.295222  6.094816 41.537902

