Generated by pymatgen.io.lammps.data.LammpsData

1536  atoms

   3  atom types

0.000000 19.453924  xlo xhi
0.000000 24.379264  ylo yhi
0.000000 67.372890  zlo zhi

Masses

1  24.30500
2  47.86700
3  92.90638

Atoms

1     1 0.0000  0.000000  1.572310  0.838826
2     1 0.0000  0.000000  1.572310 12.067641
3     1 0.0000  0.000000  1.572310 23.296456
4     1 0.0000  0.000000  1.572310 34.525271
5     1 0.0000  0.000000  1.572310 45.754086
6     1 0.0000  0.000000  1.572310 56.982901
7     1 0.0000  0.000000  7.667126  0.838826
8     1 0.0000  0.000000  7.667126 12.067641
9     1 0.0000  0.000000  7.667126 23.296456
10    1 0.0000  0.000000  7.667126 34.525271
11    1 0.0000  0.000000  7.667126 45.754086
12    1 0.0000  0.000000  7.667126 56.982901
13    1 0.0000  0.000000 13.761942  0.838826
14    1 0.0000  0.000000 13.761942 12.067641
15    1 0.0000  0.000000 13.761942 23.296456
16    1 0.0000  0.000000 13.761942 34.525271
17    1 0.0000  0.000000 13.761942 45.754086
18    1 0.0000  0.000000 13.761942 56.982901
19    1 0.0000  0.000000 19.856758  0.838826
20    1 0.0000  0.000000 19.856758 12.067641
21    1 0.0000  0.000000 19.856758 23.296456
22    1 0.0000  0.000000 19.856758 34.525271
23    1 0.0000  0.000000 19.856758 45.754086
24    1 0.0000  0.000000 19.856758 56.982901
25    1 0.0000  4.863481  1.572310  0.838826
26    1 0.0000  4.863481  1.572310 12.067641
27    1 0.0000  4.863481  1.572310 23.296456
28    1 0.0000  4.863481  1.572310 34.525271
29    1 0.0000  4.863481  1.572310 45.754086
30    1 0.0000  4.863481  1.572310 56.982901
31    1 0.0000  4.863481  7.667126  0.838826
32    1 0.0000  4.863481  7.667126 12.067641
33    1 0.0000  4.863481  7.667126 23.296456
34    1 0.0000  4.863481  7.667126 34.525271
35    1 0.0000  4.863481  7.667126 45.754086
36    1 0.0000  4.863481  7.667126 56.982901
37    1 0.0000  4.863481 13.761942  0.838826
38    1 0.0000  4.863481 13.761942 12.067641
39    1 0.0000  4.863481 13.761942 23.296456
40    1 0.0000  4.863481 13.761942 34.525271
41    1 0.0000  4.863481 13.761942 45.754086
42    1 0.0000  4.863481 13.761942 56.982901
43    1 0.0000  4.863481 19.856758  0.838826
44    1 0.0000  4.863481 19.856758 12.067641
45    1 0.0000  4.863481 19.856758 23.296456
46    1 0.0000  4.863481 19.856758 34.525271
47    1 0.0000  4.863481 19.856758 45.754086
48    1 0.0000  4.863481 19.856758 56.982901
49    1 0.0000  9.726962  1.572310  0.838826
50    1 0.0000  9.726962  1.572310 12.067641
51    1 0.0000  9.726962  1.572310 23.296456
52    1 0.0000  9.726962  1.572310 34.525271
53    1 0.0000  9.726962  1.572310 45.754086
54    1 0.0000  9.726962  1.572310 56.982901
55    1 0.0000  9.726962  7.667126  0.838826
56    1 0.0000  9.726962  7.667126 12.067641
57    1 0.0000  9.726962  7.667126 23.296456
58    1 0.0000  9.726962  7.667126 34.525271
59    1 0.0000  9.726962  7.667126 45.754086
60    1 0.0000  9.726962  7.667126 56.982901
61    1 0.0000  9.726962 13.761942  0.838826
62    1 0.0000  9.726962 13.761942 12.067641
63    1 0.0000  9.726962 13.761942 23.296456
64    1 0.0000  9.726962 13.761942 34.525271
65    1 0.0000  9.726962 13.761942 45.754086
66    1 0.0000  9.726962 13.761942 56.982901
67    1 0.0000  9.726962 19.856758  0.838826
68    1 0.0000  9.726962 19.856758 12.067641
69    1 0.0000  9.726962 19.856758 23.296456
70    1 0.0000  9.726962 19.856758 34.525271
71    1 0.0000  9.726962 19.856758 45.754086
72    1 0.0000  9.726962 19.856758 56.982901
73    1 0.0000 14.590443  1.572310  0.838826
74    1 0.0000 14.590443  1.572310 12.067641
75    1 0.0000 14.590443  1.572310 23.296456
76    1 0.0000 14.590443  1.572310 34.525271
77    1 0.0000 14.590443  1.572310 45.754086
78    1 0.0000 14.590443  1.572310 56.982901
79    1 0.0000 14.590443  7.667126  0.838826
80    1 0.0000 14.590443  7.667126 12.067641
81    1 0.0000 14.590443  7.667126 23.296456
82    1 0.0000 14.590443  7.667126 34.525271
83    1 0.0000 14.590443  7.667126 45.754086
84    1 0.0000 14.590443  7.667126 56.982901
85    1 0.0000 14.590443 13.761942  0.838826
86    1 0.0000 14.590443 13.761942 12.067641
87    1 0.0000 14.590443 13.761942 23.296456
88    1 0.0000 14.590443 13.761942 34.525271
89    1 0.0000 14.590443 13.761942 45.754086
90    1 0.0000 14.590443 13.761942 56.982901
91    1 0.0000 14.590443 19.856758  0.838826
92    1 0.0000 14.590443 19.856758 12.067641
93    1 0.0000 14.590443 19.856758 23.296456
94    1 0.0000 14.590443 19.856758 34.525271
95    1 0.0000 14.590443 19.856758 45.754086
96    1 0.0000 14.590443 19.856758 56.982901
97    1 0.0000  0.000000  4.522506  0.838826
98    1 0.0000  0.000000  4.522506 12.067641
99    1 0.0000  0.000000  4.522506 23.296456
100   1 0.0000  0.000000  4.522506 34.525271
101   1 0.0000  0.000000  4.522506 45.754086
102   1 0.0000  0.000000  4.522506 56.982901
103   1 0.0000  0.000000 10.617322  0.838826
104   1 0.0000  0.000000 10.617322 12.067641
105   1 0.0000  0.000000 10.617322 23.296456
106   1 0.0000  0.000000 10.617322 34.525271
107   1 0.0000  0.000000 10.617322 45.754086
108   1 0.0000  0.000000 10.617322 56.982901
109   1 0.0000  0.000000 16.712138  0.838826
110   1 0.0000  0.000000 16.712138 12.067641
111   1 0.0000  0.000000 16.712138 23.296456
112   1 0.0000  0.000000 16.712138 34.525271
113   1 0.0000  0.000000 16.712138 45.754086
114   1 0.0000  0.000000 16.712138 56.982901
115   1 0.0000  0.000000 22.806954  0.838826
116   1 0.0000  0.000000 22.806954 12.067641
117   1 0.0000  0.000000 22.806954 23.296456
118   1 0.0000  0.000000 22.806954 34.525271
119   1 0.0000  0.000000 22.806954 45.754086
120   1 0.0000  0.000000 22.806954 56.982901
121   1 0.0000  4.863481  4.522506  0.838826
122   1 0.0000  4.863481  4.522506 12.067641
123   1 0.0000  4.863481  4.522506 23.296456
124   1 0.0000  4.863481  4.522506 34.525271
125   1 0.0000  4.863481  4.522506 45.754086
126   1 0.0000  4.863481  4.522506 56.982901
127   1 0.0000  4.863481 10.617322  0.838826
128   1 0.0000  4.863481 10.617322 12.067641
129   1 0.0000  4.863481 10.617322 23.296456
130   1 0.0000  4.863481 10.617322 34.525271
131   1 0.0000  4.863481 10.617322 45.754086
132   1 0.0000  4.863481 10.617322 56.982901
133   1 0.0000  4.863481 16.712138  0.838826
134   1 0.0000  4.863481 16.712138 12.067641
135   1 0.0000  4.863481 16.712138 23.296456
136   1 0.0000  4.863481 16.712138 34.525271
137   1 0.0000  4.863481 16.712138 45.754086
138   1 0.0000  4.863481 16.712138 56.982901
139   1 0.0000  4.863481 22.806954  0.838826
140   1 0.0000  4.863481 22.806954 12.067641
141   1 0.0000  4.863481 22.806954 23.296456
142   1 0.0000  4.863481 22.806954 34.525271
143   1 0.0000  4.863481 22.806954 45.754086
144   1 0.0000  4.863481 22.806954 56.982901
145   1 0.0000  9.726962  4.522506  0.838826
146   1 0.0000  9.726962  4.522506 12.067641
147   1 0.0000  9.726962  4.522506 23.296456
148   1 0.0000  9.726962  4.522506 34.525271
149   1 0.0000  9.726962  4.522506 45.754086
150   1 0.0000  9.726962  4.522506 56.982901
151   1 0.0000  9.726962 10.617322  0.838826
152   1 0.0000  9.726962 10.617322 12.067641
153   1 0.0000  9.726962 10.617322 23.296456
154   1 0.0000  9.726962 10.617322 34.525271
155   1 0.0000  9.726962 10.617322 45.754086
156   1 0.0000  9.726962 10.617322 56.982901
157   1 0.0000  9.726962 16.712138  0.838826
158   1 0.0000  9.726962 16.712138 12.067641
159   1 0.0000  9.726962 16.712138 23.296456
160   1 0.0000  9.726962 16.712138 34.525271
161   1 0.0000  9.726962 16.712138 45.754086
162   1 0.0000  9.726962 16.712138 56.982901
163   1 0.0000  9.726962 22.806954  0.838826
164   1 0.0000  9.726962 22.806954 12.067641
165   1 0.0000  9.726962 22.806954 23.296456
166   1 0.0000  9.726962 22.806954 34.525271
167   1 0.0000  9.726962 22.806954 45.754086
168   1 0.0000  9.726962 22.806954 56.982901
169   1 0.0000 14.590443  4.522506  0.838826
170   1 0.0000 14.590443  4.522506 12.067641
171   1 0.0000 14.590443  4.522506 23.296456
172   1 0.0000 14.590443  4.522506 34.525271
173   1 0.0000 14.590443  4.522506 45.754086
174   1 0.0000 14.590443  4.522506 56.982901
175   1 0.0000 14.590443 10.617322  0.838826
176   1 0.0000 14.590443 10.617322 12.067641
177   1 0.0000 14.590443 10.617322 23.296456
178   1 0.0000 14.590443 10.617322 34.525271
179   1 0.0000 14.590443 10.617322 45.754086
180   1 0.0000 14.590443 10.617322 56.982901
181   1 0.0000 14.590443 16.712138  0.838826
182   1 0.0000 14.590443 16.712138 12.067641
183   1 0.0000 14.590443 16.712138 23.296456
184   1 0.0000 14.590443 16.712138 34.525271
185   1 0.0000 14.590443 16.712138 45.754086
186   1 0.0000 14.590443 16.712138 56.982901
187   1 0.0000 14.590443 22.806954  0.838826
188   1 0.0000 14.590443 22.806954 12.067641
189   1 0.0000 14.590443 22.806954 23.296456
190   1 0.0000 14.590443 22.806954 34.525271
191   1 0.0000 14.590443 22.806954 45.754086
192   1 0.0000 14.590443 22.806954 56.982901
193   1 0.0000  0.000000  0.000000  3.665793
194   1 0.0000  0.000000  0.000000 14.894608
195   1 0.0000  0.000000  0.000000 26.123423
196   1 0.0000  0.000000  0.000000 37.352238
197   1 0.0000  0.000000  0.000000 48.581053
198   1 0.0000  0.000000  0.000000 59.809868
199   1 0.0000  0.000000  6.094816  3.665793
200   1 0.0000  0.000000  6.094816 14.894608
201   1 0.0000  0.000000  6.094816 26.123423
202   1 0.0000  0.000000  6.094816 37.352238
203   1 0.0000  0.000000  6.094816 48.581053
204   1 0.0000  0.000000  6.094816 59.809868
205   1 0.0000  0.000000 12.189632  3.665793
206   1 0.0000  0.000000 12.189632 14.894608
207   1 0.0000  0.000000 12.189632 26.123423
208   1 0.0000  0.000000 12.189632 37.352238
209   1 0.0000  0.000000 12.189632 48.581053
210   1 0.0000  0.000000 12.189632 59.809868
211   1 0.0000  0.000000 18.284448  3.665793
212   1 0.0000  0.000000 18.284448 14.894608
213   1 0.0000  0.000000 18.284448 26.123423
214   1 0.0000  0.000000 18.284448 37.352238
215   1 0.0000  0.000000 18.284448 48.581053
216   1 0.0000  0.000000 18.284448 59.809868
217   1 0.0000  4.863481  0.000000  3.665793
218   1 0.0000  4.863481  0.000000 14.894608
219   1 0.0000  4.863481  0.000000 26.123423
220   1 0.0000  4.863481  0.000000 37.352238
221   1 0.0000  4.863481  0.000000 48.581053
222   1 0.0000  4.863481  0.000000 59.809868
223   1 0.0000  4.863481  6.094816  3.665793
224   1 0.0000  4.863481  6.094816 14.894608
225   1 0.0000  4.863481  6.094816 26.123423
226   1 0.0000  4.863481  6.094816 37.352238
227   1 0.0000  4.863481  6.094816 48.581053
228   1 0.0000  4.863481  6.094816 59.809868
229   1 0.0000  4.863481 12.189632  3.665793
230   1 0.0000  4.863481 12.189632 14.894608
231   1 0.0000  4.863481 12.189632 26.123423
232   1 0.0000  4.863481 12.189632 37.352238
233   1 0.0000  4.863481 12.189632 48.581053
234   1 0.0000  4.863481 12.189632 59.809868
235   1 0.0000  4.863481 18.284448  3.665793
236   1 0.0000  4.863481 18.284448 14.894608
237   1 0.0000  4.863481 18.284448 26.123423
238   1 0.0000  4.863481 18.284448 37.352238
239   1 0.0000  4.863481 18.284448 48.581053
240   1 0.0000  4.863481 18.284448 59.809868
241   1 0.0000  9.726962  0.000000  3.665793
242   1 0.0000  9.726962  0.000000 14.894608
243   1 0.0000  9.726962  0.000000 26.123423
244   1 0.0000  9.726962  0.000000 37.352238
245   1 0.0000  9.726962  0.000000 48.581053
246   1 0.0000  9.726962  0.000000 59.809868
247   1 0.0000  9.726962  6.094816  3.665793
248   1 0.0000  9.726962  6.094816 14.894608
249   1 0.0000  9.726962  6.094816 26.123423
250   1 0.0000  9.726962  6.094816 37.352238
251   1 0.0000  9.726962  6.094816 48.581053
252   1 0.0000  9.726962  6.094816 59.809868
253   1 0.0000  9.726962 12.189632  3.665793
254   1 0.0000  9.726962 12.189632 14.894608
255   1 0.0000  9.726962 12.189632 26.123423
256   1 0.0000  9.726962 12.189632 37.352238
257   1 0.0000  9.726962 12.189632 48.581053
258   1 0.0000  9.726962 12.189632 59.809868
259   1 0.0000  9.726962 18.284448  3.665793
260   1 0.0000  9.726962 18.284448 14.894608
261   1 0.0000  9.726962 18.284448 26.123423
262   1 0.0000  9.726962 18.284448 37.352238
263   1 0.0000  9.726962 18.284448 48.581053
264   1 0.0000  9.726962 18.284448 59.809868
265   1 0.0000 14.590443  0.000000  3.665793
266   1 0.0000 14.590443  0.000000 14.894608
267   1 0.0000 14.590443  0.000000 26.123423
268   1 0.0000 14.590443  0.000000 37.352238
269   1 0.0000 14.590443  0.000000 48.581053
270   1 0.0000 14.590443  0.000000 59.809868
271   1 0.0000 14.590443  6.094816  3.665793
272   1 0.0000 14.590443  6.094816 14.894608
273   1 0.0000 14.590443  6.094816 26.123423
274   1 0.0000 14.590443  6.094816 37.352238
275   1 0.0000 14.590443  6.094816 48.581053
276   1 0.0000 14.590443  6.094816 59.809868
277   1 0.0000 14.590443 12.189632  3.665793
278   1 0.0000 14.590443 12.189632 14.894608
279   1 0.0000 14.590443 12.189632 26.123423
280   1 0.0000 14.590443 12.189632 37.352238
281   1 0.0000 14.590443 12.189632 48.581053
282   1 0.0000 14.590443 12.189632 59.809868
283   1 0.0000 14.590443 18.284448  3.665793
284   1 0.0000 14.590443 18.284448 14.894608
285   1 0.0000 14.590443 18.284448 26.123423
286   1 0.0000 14.590443 18.284448 37.352238
287   1 0.0000 14.590443 18.284448 48.581053
288   1 0.0000 14.590443 18.284448 59.809868
289   1 0.0000  2.431741  4.530624  4.789157
290   1 0.0000  2.431741  4.530624 16.017972
291   1 0.0000  2.431741  4.530624 27.246787
292   1 0.0000  2.431741  4.530624 38.475602
293   1 0.0000  2.431741  4.530624 49.704417
294   1 0.0000  2.431741  4.530624 60.933232
295   1 0.0000  2.431741 10.625440  4.789157
296   1 0.0000  2.431741 10.625440 16.017972
297   1 0.0000  2.431741 10.625440 27.246787
298   1 0.0000  2.431741 10.625440 38.475602
299   1 0.0000  2.431741 10.625440 49.704417
300   1 0.0000  2.431741 10.625440 60.933232
301   1 0.0000  2.431741 16.720256  4.789157
302   1 0.0000  2.431741 16.720256 16.017972
303   1 0.0000  2.431741 16.720256 27.246787
304   1 0.0000  2.431741 16.720256 38.475602
305   1 0.0000  2.431741 16.720256 49.704417
306   1 0.0000  2.431741 16.720256 60.933232
307   1 0.0000  2.431741 22.815072  4.789157
308   1 0.0000  2.431741 22.815072 16.017972
309   1 0.0000  2.431741 22.815072 27.246787
310   1 0.0000  2.431741 22.815072 38.475602
311   1 0.0000  2.431741 22.815072 49.704417
312   1 0.0000  2.431741 22.815072 60.933232
313   1 0.0000  7.295222  4.530624  4.789157
314   1 0.0000  7.295222  4.530624 16.017972
315   1 0.0000  7.295222  4.530624 27.246787
316   1 0.0000  7.295222  4.530624 38.475602
317   1 0.0000  7.295222  4.530624 49.704417
318   1 0.0000  7.295222  4.530624 60.933232
319   1 0.0000  7.295222 10.625440  4.789157
320   1 0.0000  7.295222 10.625440 16.017972
321   1 0.0000  7.295222 10.625440 27.246787
322   1 0.0000  7.295222 10.625440 38.475602
323   1 0.0000  7.295222 10.625440 49.704417
324   1 0.0000  7.295222 10.625440 60.933232
325   1 0.0000  7.295222 16.720256  4.789157
326   1 0.0000  7.295222 16.720256 16.017972
327   1 0.0000  7.295222 16.720256 27.246787
328   1 0.0000  7.295222 16.720256 38.475602
329   1 0.0000  7.295222 16.720256 49.704417
330   1 0.0000  7.295222 16.720256 60.933232
331   1 0.0000  7.295222 22.815072  4.789157
332   1 0.0000  7.295222 22.815072 16.017972
333   1 0.0000  7.295222 22.815072 27.246787
334   1 0.0000  7.295222 22.815072 38.475602
335   1 0.0000  7.295222 22.815072 49.704417
336   1 0.0000  7.295222 22.815072 60.933232
337   1 0.0000 12.158703  4.530624  4.789157
338   1 0.0000 12.158703  4.530624 16.017972
339   1 0.0000 12.158703  4.530624 27.246787
340   1 0.0000 12.158703  4.530624 38.475602
341   1 0.0000 12.158703  4.530624 49.704417
342   1 0.0000 12.158703  4.530624 60.933232
343   1 0.0000 12.158703 10.625440  4.789157
344   1 0.0000 12.158703 10.625440 16.017972
345   1 0.0000 12.158703 10.625440 27.246787
346   1 0.0000 12.158703 10.625440 38.475602
347   1 0.0000 12.158703 10.625440 49.704417
348   1 0.0000 12.158703 10.625440 60.933232
349   1 0.0000 12.158703 16.720256  4.789157
350   1 0.0000 12.158703 16.720256 16.017972
351   1 0.0000 12.158703 16.720256 27.246787
352   1 0.0000 12.158703 16.720256 38.475602
353   1 0.0000 12.158703 16.720256 49.704417
354   1 0.0000 12.158703 16.720256 60.933232
355   1 0.0000 12.158703 22.815072  4.789157
356   1 0.0000 12.158703 22.815072 16.017972
357   1 0.0000 12.158703 22.815072 27.246787
358   1 0.0000 12.158703 22.815072 38.475602
359   1 0.0000 12.158703 22.815072 49.704417
360   1 0.0000 12.158703 22.815072 60.933232
361   1 0.0000 17.022184  4.530624  4.789157
362   1 0.0000 17.022184  4.530624 16.017972
363   1 0.0000 17.022184  4.530624 27.246787
364   1 0.0000 17.022184  4.530624 38.475602
365   1 0.0000 17.022184  4.530624 49.704417
366   1 0.0000 17.022184  4.530624 60.933232
367   1 0.0000 17.022184 10.625440  4.789157
368   1 0.0000 17.022184 10.625440 16.017972
369   1 0.0000 17.022184 10.625440 27.246787
370   1 0.0000 17.022184 10.625440 38.475602
371   1 0.0000 17.022184 10.625440 49.704417
372   1 0.0000 17.022184 10.625440 60.933232
373   1 0.0000 17.022184 16.720256  4.789157
374   1 0.0000 17.022184 16.720256 16.017972
375   1 0.0000 17.022184 16.720256 27.246787
376   1 0.0000 17.022184 16.720256 38.475602
377   1 0.0000 17.022184 16.720256 49.704417
378   1 0.0000 17.022184 16.720256 60.933232
379   1 0.0000 17.022184 22.815072  4.789157
380   1 0.0000 17.022184 22.815072 16.017972
381   1 0.0000 17.022184 22.815072 27.246787
382   1 0.0000 17.022184 22.815072 38.475602
383   1 0.0000 17.022184 22.815072 49.704417
384   1 0.0000 17.022184 22.815072 60.933232
385   1 0.0000  2.431741  1.564192  4.789157
386   1 0.0000  2.431741  1.564192 16.017972
387   1 0.0000  2.431741  1.564192 27.246787
388   1 0.0000  2.431741  1.564192 38.475602
389   1 0.0000  2.431741  1.564192 49.704417
390   1 0.0000  2.431741  1.564192 60.933232
391   1 0.0000  2.431741  7.659008  4.789157
392   1 0.0000  2.431741  7.659008 16.017972
393   1 0.0000  2.431741  7.659008 27.246787
394   1 0.0000  2.431741  7.659008 38.475602
395   1 0.0000  2.431741  7.659008 49.704417
396   1 0.0000  2.431741  7.659008 60.933232
397   1 0.0000  2.431741 13.753824  4.789157
398   1 0.0000  2.431741 13.753824 16.017972
399   1 0.0000  2.431741 13.753824 27.246787
400   1 0.0000  2.431741 13.753824 38.475602
401   1 0.0000  2.431741 13.753824 49.704417
402   1 0.0000  2.431741 13.753824 60.933232
403   1 0.0000  2.431741 19.848640  4.789157
404   1 0.0000  2.431741 19.848640 16.017972
405   1 0.0000  2.431741 19.848640 27.246787
406   1 0.0000  2.431741 19.848640 38.475602
407   1 0.0000  2.431741 19.848640 49.704417
408   1 0.0000  2.431741 19.848640 60.933232
409   1 0.0000  7.295222  1.564192  4.789157
410   1 0.0000  7.295222  1.564192 16.017972
411   1 0.0000  7.295222  1.564192 27.246787
412   1 0.0000  7.295222  1.564192 38.475602
413   1 0.0000  7.295222  1.564192 49.704417
414   1 0.0000  7.295222  1.564192 60.933232
415   1 0.0000  7.295222  7.659008  4.789157
416   1 0.0000  7.295222  7.659008 16.017972
417   1 0.0000  7.295222  7.659008 27.246787
418   1 0.0000  7.295222  7.659008 38.475602
419   1 0.0000  7.295222  7.659008 49.704417
420   1 0.0000  7.295222  7.659008 60.933232
421   1 0.0000  7.295222 13.753824  4.789157
422   1 0.0000  7.295222 13.753824 16.017972
423   1 0.0000  7.295222 13.753824 27.246787
424   1 0.0000  7.295222 13.753824 38.475602
425   1 0.0000  7.295222 13.753824 49.704417
426   1 0.0000  7.295222 13.753824 60.933232
427   1 0.0000  7.295222 19.848640  4.789157
428   1 0.0000  7.295222 19.848640 16.017972
429   1 0.0000  7.295222 19.848640 27.246787
430   1 0.0000  7.295222 19.848640 38.475602
431   1 0.0000  7.295222 19.848640 49.704417
432   1 0.0000  7.295222 19.848640 60.933232
433   1 0.0000 12.158703  1.564192  4.789157
434   1 0.0000 12.158703  1.564192 16.017972
435   1 0.0000 12.158703  1.564192 27.246787
436   1 0.0000 12.158703  1.564192 38.475602
437   1 0.0000 12.158703  1.564192 49.704417
438   1 0.0000 12.158703  1.564192 60.933232
439   1 0.0000 12.158703  7.659008  4.789157
440   1 0.0000 12.158703  7.659008 16.017972
441   1 0.0000 12.158703  7.659008 27.246787
442   1 0.0000 12.158703  7.659008 38.475602
443   1 0.0000 12.158703  7.659008 49.704417
444   1 0.0000 12.158703  7.659008 60.933232
445   1 0.0000 12.158703 13.753824  4.789157
446   1 0.0000 12.158703 13.753824 16.017972
447   1 0.0000 12.158703 13.753824 27.246787
448   1 0.0000 12.158703 13.753824 38.475602
449   1 0.0000 12.158703 13.753824 49.704417
450   1 0.0000 12.158703 13.753824 60.933232
451   1 0.0000 12.158703 19.848640  4.789157
452   1 0.0000 12.158703 19.848640 16.017972
453   1 0.0000 12.158703 19.848640 27.246787
454   1 0.0000 12.158703 19.848640 38.475602
455   1 0.0000 12.158703 19.848640 49.704417
456   1 0.0000 12.158703 19.848640 60.933232
457   1 0.0000 17.022184  1.564192  4.789157
458   1 0.0000 17.022184  1.564192 16.017972
459   1 0.0000 17.022184  1.564192 27.246787
460   1 0.0000 17.022184  1.564192 38.475602
461   1 0.0000 17.022184  1.564192 49.704417
462   1 0.0000 17.022184  1.564192 60.933232
463   1 0.0000 17.022184  7.659008  4.789157
464   1 0.0000 17.022184  7.659008 16.017972
465   1 0.0000 17.022184  7.659008 27.246787
466   1 0.0000 17.022184  7.659008 38.475602
467   1 0.0000 17.022184  7.659008 49.704417
468   1 0.0000 17.022184  7.659008 60.933232
469   1 0.0000 17.022184 13.753824  4.789157
470   1 0.0000 17.022184 13.753824 16.017972
471   1 0.0000 17.022184 13.753824 27.246787
472   1 0.0000 17.022184 13.753824 38.475602
473   1 0.0000 17.022184 13.753824 49.704417
474   1 0.0000 17.022184 13.753824 60.933232
475   1 0.0000 17.022184 19.848640  4.789157
476   1 0.0000 17.022184 19.848640 16.017972
477   1 0.0000 17.022184 19.848640 27.246787
478   1 0.0000 17.022184 19.848640 38.475602
479   1 0.0000 17.022184 19.848640 49.704417
480   1 0.0000 17.022184 19.848640 60.933232
481   1 0.0000  2.431741  0.000000  1.939654
482   1 0.0000  2.431741  0.000000 13.168469
483   1 0.0000  2.431741  0.000000 24.397284
484   1 0.0000  2.431741  0.000000 35.626099
485   1 0.0000  2.431741  0.000000 46.854914
486   1 0.0000  2.431741  0.000000 58.083729
487   1 0.0000  2.431741  6.094816  1.939654
488   1 0.0000  2.431741  6.094816 13.168469
489   1 0.0000  2.431741  6.094816 24.397284
490   1 0.0000  2.431741  6.094816 35.626099
491   1 0.0000  2.431741  6.094816 46.854914
492   1 0.0000  2.431741  6.094816 58.083729
493   1 0.0000  2.431741 12.189632  1.939654
494   1 0.0000  2.431741 12.189632 13.168469
495   1 0.0000  2.431741 12.189632 24.397284
496   1 0.0000  2.431741 12.189632 35.626099
497   1 0.0000  2.431741 12.189632 46.854914
498   1 0.0000  2.431741 12.189632 58.083729
499   1 0.0000  2.431741 18.284448  1.939654
500   1 0.0000  2.431741 18.284448 13.168469
501   1 0.0000  2.431741 18.284448 24.397284
502   1 0.0000  2.431741 18.284448 35.626099
503   1 0.0000  2.431741 18.284448 46.854914
504   1 0.0000  2.431741 18.284448 58.083729
505   1 0.0000  7.295222  0.000000  1.939654
506   1 0.0000  7.295222  0.000000 13.168469
507   1 0.0000  7.295222  0.000000 24.397284
508   1 0.0000  7.295222  0.000000 35.626099
509   1 0.0000  7.295222  0.000000 46.854914
510   1 0.0000  7.295222  0.000000 58.083729
511   1 0.0000  7.295222  6.094816  1.939654
512   1 0.0000  7.295222  6.094816 13.168469
513   1 0.0000  7.295222  6.094816 24.397284
514   1 0.0000  7.295222  6.094816 35.626099
515   1 0.0000  7.295222  6.094816 46.854914
516   1 0.0000  7.295222  6.094816 58.083729
517   1 0.0000  7.295222 12.189632  1.939654
518   1 0.0000  7.295222 12.189632 13.168469
519   1 0.0000  7.295222 12.189632 24.397284
520   1 0.0000  7.295222 12.189632 35.626099
521   1 0.0000  7.295222 12.189632 46.854914
522   1 0.0000  7.295222 12.189632 58.083729
523   1 0.0000  7.295222 18.284448  1.939654
524   1 0.0000  7.295222 18.284448 13.168469
525   1 0.0000  7.295222 18.284448 24.397284
526   1 0.0000  7.295222 18.284448 35.626099
527   1 0.0000  7.295222 18.284448 46.854914
528   1 0.0000  7.295222 18.284448 58.083729
529   1 0.0000 12.158703  0.000000  1.939654
530   1 0.0000 12.158703  0.000000 13.168469
531   1 0.0000 12.158703  0.000000 24.397284
532   1 0.0000 12.158703  0.000000 35.626099
533   1 0.0000 12.158703  0.000000 46.854914
534   1 0.0000 12.158703  0.000000 58.083729
535   1 0.0000 12.158703  6.094816  1.939654
536   1 0.0000 12.158703  6.094816 13.168469
537   1 0.0000 12.158703  6.094816 24.397284
538   1 0.0000 12.158703  6.094816 35.626099
539   1 0.0000 12.158703  6.094816 46.854914
540   1 0.0000 12.158703  6.094816 58.083729
541   1 0.0000 12.158703 12.189632  1.939654
542   1 0.0000 12.158703 12.189632 13.168469
543   1 0.0000 12.158703 12.189632 24.397284
544   1 0.0000 12.158703 12.189632 35.626099
545   1 0.0000 12.158703 12.189632 46.854914
546   1 0.0000 12.158703 12.189632 58.083729
547   1 0.0000 12.158703 18.284448  1.939654
548   1 0.0000 12.158703 18.284448 13.168469
549   1 0.0000 12.158703 18.284448 24.397284
550   1 0.0000 12.158703 18.284448 35.626099
551   1 0.0000 12.158703 18.284448 46.854914
552   1 0.0000 12.158703 18.284448 58.083729
553   1 0.0000 17.022184  0.000000  1.939654
554   1 0.0000 17.022184  0.000000 13.168469
555   1 0.0000 17.022184  0.000000 24.397284
556   1 0.0000 17.022184  0.000000 35.626099
557   1 0.0000 17.022184  0.000000 46.854914
558   1 0.0000 17.022184  0.000000 58.083729
559   1 0.0000 17.022184  6.094816  1.939654
560   1 0.0000 17.022184  6.094816 13.168469
561   1 0.0000 17.022184  6.094816 24.397284
562   1 0.0000 17.022184  6.094816 35.626099
563   1 0.0000 17.022184  6.094816 46.854914
564   1 0.0000 17.022184  6.094816 58.083729
565   1 0.0000 17.022184 12.189632  1.939654
566   1 0.0000 17.022184 12.189632 13.168469
567   1 0.0000 17.022184 12.189632 24.397284
568   1 0.0000 17.022184 12.189632 35.626099
569   1 0.0000 17.022184 12.189632 46.854914
570   1 0.0000 17.022184 12.189632 58.083729
571   1 0.0000 17.022184 18.284448  1.939654
572   1 0.0000 17.022184 18.284448 13.168469
573   1 0.0000 17.022184 18.284448 24.397284
574   1 0.0000 17.022184 18.284448 35.626099
575   1 0.0000 17.022184 18.284448 46.854914
576   1 0.0000 17.022184 18.284448 58.083729
577   1 0.0000  0.000000  4.619718  6.453234
578   1 0.0000  0.000000  4.619718 17.682049
579   1 0.0000  0.000000  4.619718 28.910864
580   1 0.0000  0.000000  4.619718 40.139679
581   1 0.0000  0.000000  4.619718 51.368494
582   1 0.0000  0.000000  4.619718 62.597309
583   1 0.0000  0.000000 10.714534  6.453234
584   1 0.0000  0.000000 10.714534 17.682049
585   1 0.0000  0.000000 10.714534 28.910864
586   1 0.0000  0.000000 10.714534 40.139679
587   1 0.0000  0.000000 10.714534 51.368494
588   1 0.0000  0.000000 10.714534 62.597309
589   1 0.0000  0.000000 16.809350  6.453234
590   1 0.0000  0.000000 16.809350 17.682049
591   1 0.0000  0.000000 16.809350 28.910864
592   1 0.0000  0.000000 16.809350 40.139679
593   1 0.0000  0.000000 16.809350 51.368494
594   1 0.0000  0.000000 16.809350 62.597309
595   1 0.0000  0.000000 22.904166  6.453234
596   1 0.0000  0.000000 22.904166 17.682049
597   1 0.0000  0.000000 22.904166 28.910864
598   1 0.0000  0.000000 22.904166 40.139679
599   1 0.0000  0.000000 22.904166 51.368494
600   1 0.0000  0.000000 22.904166 62.597309
601   1 0.0000  4.863481  4.619718  6.453234
602   1 0.0000  4.863481  4.619718 17.682049
603   1 0.0000  4.863481  4.619718 28.910864
604   1 0.0000  4.863481  4.619718 40.139679
605   1 0.0000  4.863481  4.619718 51.368494
606   1 0.0000  4.863481  4.619718 62.597309
607   1 0.0000  4.863481 10.714534  6.453234
608   1 0.0000  4.863481 10.714534 17.682049
609   1 0.0000  4.863481 10.714534 28.910864
610   1 0.0000  4.863481 10.714534 40.139679
611   1 0.0000  4.863481 10.714534 51.368494
612   1 0.0000  4.863481 10.714534 62.597309
613   1 0.0000  4.863481 16.809350  6.453234
614   1 0.0000  4.863481 16.809350 17.682049
615   1 0.0000  4.863481 16.809350 28.910864
616   1 0.0000  4.863481 16.809350 40.139679
617   1 0.0000  4.863481 16.809350 51.368494
618   1 0.0000  4.863481 16.809350 62.597309
619   1 0.0000  4.863481 22.904166  6.453234
620   1 0.0000  4.863481 22.904166 17.682049
621   1 0.0000  4.863481 22.904166 28.910864
622   1 0.0000  4.863481 22.904166 40.139679
623   1 0.0000  4.863481 22.904166 51.368494
624   1 0.0000  4.863481 22.904166 62.597309
625   1 0.0000  9.726962  4.619718  6.453234
626   1 0.0000  9.726962  4.619718 17.682049
627   1 0.0000  9.726962  4.619718 28.910864
628   1 0.0000  9.726962  4.619718 40.139679
629   1 0.0000  9.726962  4.619718 51.368494
630   1 0.0000  9.726962  4.619718 62.597309
631   1 0.0000  9.726962 10.714534  6.453234
632   1 0.0000  9.726962 10.714534 17.682049
633   1 0.0000  9.726962 10.714534 28.910864
634   1 0.0000  9.726962 10.714534 40.139679
635   1 0.0000  9.726962 10.714534 51.368494
636   1 0.0000  9.726962 10.714534 62.597309
637   1 0.0000  9.726962 16.809350  6.453234
638   1 0.0000  9.726962 16.809350 17.682049
639   1 0.0000  9.726962 16.809350 28.910864
640   1 0.0000  9.726962 16.809350 40.139679
641   1 0.0000  9.726962 16.809350 51.368494
642   1 0.0000  9.726962 16.809350 62.597309
643   1 0.0000  9.726962 22.904166  6.453234
644   1 0.0000  9.726962 22.904166 17.682049
645   1 0.0000  9.726962 22.904166 28.910864
646   1 0.0000  9.726962 22.904166 40.139679
647   1 0.0000  9.726962 22.904166 51.368494
648   1 0.0000  9.726962 22.904166 62.597309
649   1 0.0000 14.590443  4.619718  6.453234
650   1 0.0000 14.590443  4.619718 17.682049
651   1 0.0000 14.590443  4.619718 28.910864
652   1 0.0000 14.590443  4.619718 40.139679
653   1 0.0000 14.590443  4.619718 51.368494
654   1 0.0000 14.590443  4.619718 62.597309
655   1 0.0000 14.590443 10.714534  6.453234
656   1 0.0000 14.590443 10.714534 17.682049
657   1 0.0000 14.590443 10.714534 28.910864
658   1 0.0000 14.590443 10.714534 40.139679
659   1 0.0000 14.590443 10.714534 51.368494
660   1 0.0000 14.590443 10.714534 62.597309
661   1 0.0000 14.590443 16.809350  6.453234