Generated by pymatgen.io.lammps.data.LammpsData

64  atoms

 2  atom types

0.000000 6.377860  xlo xhi
0.000000 5.523390  ylo yhi
0.000000 20.769429  zlo zhi
-3.188931 0.000000 0.000000  xy xz yz

Masses

1  69.7230
2  14.0067

Atoms

1   1 0.0000  1.594465 0.920565  2.591421
2   1 0.0000  1.594465 0.920565  7.783778
3   1 0.0000  1.594465 0.920565 12.976135
4   1 0.0000  1.594465 0.920565 18.168493
5   1 0.0000 -0.000001 3.682260  2.591421
6   1 0.0000 -0.000001 3.682260  7.783778
7   1 0.0000 -0.000001 3.682260 12.976135
8   1 0.0000 -0.000001 3.682260 18.168493
9   1 0.0000  4.783395 0.920565  2.591421
10  1 0.0000  4.783395 0.920565  7.783778
11  1 0.0000  4.783395 0.920565 12.976135
12  1 0.0000  4.783395 0.920565 18.168493
13  1 0.0000  3.188929 3.682260  2.591421
14  1 0.0000  3.188929 3.682260  7.783778
15  1 0.0000  3.188929 3.682260 12.976135
16  1 0.0000  3.188929 3.682260 18.168493
17  1 0.0000 -0.000000 1.841130  5.187600
18  1 0.0000 -0.000000 1.841130 10.379957
19  1 0.0000 -0.000000 1.841130 15.572314
20  1 0.0000 -0.000000 1.841130 20.764671
21  1 0.0000 -1.594466 4.602825  5.187600
22  1 0.0000 -1.594466 4.602825 10.379957
23  1 0.0000 -1.594466 4.602825 15.572314
24  1 0.0000 -1.594466 4.602825 20.764671
25  1 0.0000  3.188930 1.841130  5.187600
26  1 0.0000  3.188930 1.841130 10.379957
27  1 0.0000  3.188930 1.841130 15.572314
28  1 0.0000  3.188930 1.841130 20.764671
29  1 0.0000  1.594464 4.602825  5.187600
30  1 0.0000  1.594464 4.602825 10.379957
31  1 0.0000  1.594464 4.602825 15.572314
32  1 0.0000  1.594464 4.602825 20.764671
33  2 0.0000  1.594465 0.920565  4.548070
34  2 0.0000  1.594465 0.920565  9.740428
35  2 0.0000  1.594465 0.920565 14.932785
36  2 0.0000  1.594465 0.920565 20.125142
37  2 0.0000 -0.000001 3.682260  4.548070
38  2 0.0000 -0.000001 3.682260  9.740428
39  2 0.0000 -0.000001 3.682260 14.932785
40  2 0.0000 -0.000001 3.682260 20.125142
41  2 0.0000  4.783395 0.920565  4.548070
42  2 0.0000  4.783395 0.920565  9.740428
43  2 0.0000  4.783395 0.920565 14.932785
44  2 0.0000  4.783395 0.920565 20.125142
45  2 0.0000  3.188929 3.682260  4.548070
46  2 0.0000  3.188929 3.682260  9.740428
47  2 0.0000  3.188929 3.682260 14.932785
48  2 0.0000  3.188929 3.682260 20.125142
49  2 0.0000 -0.000000 1.841130  1.951892
50  2 0.0000 -0.000000 1.841130  7.144249
51  2 0.0000 -0.000000 1.841130 12.336606
52  2 0.0000 -0.000000 1.841130 17.528963
53  2 0.0000 -1.594466 4.602825  1.951892
54  2 0.0000 -1.594466 4.602825  7.144249
55  2 0.0000 -1.594466 4.602825 12.336606
56  2 0.0000 -1.594466 4.602825 17.528963
57  2 0.0000  3.188930 1.841130  1.951892
58  2 0.0000  3.188930 1.841130  7.144249
59  2 0.0000  3.188930 1.841130 12.336606
60  2 0.0000  3.188930 1.841130 17.528963
61  2 0.0000  1.594464 4.602825  1.951892
62  2 0.0000  1.594464 4.602825  7.144249
63  2 0.0000  1.594464 4.602825 12.336606
64  2 0.0000  1.594464 4.602825 17.528963

