Generated by pymatgen.io.lammps.data.LammpsData

384  atoms

  2  atom types

0.000000 12.755720  xlo xhi
0.000000 11.046781  ylo yhi
0.000000 31.154143  zlo zhi
-6.377862 0.000000 0.000000  xy xz yz

Masses

1  69.7230
2  14.0067

Atoms

1    1 0.0000  1.594465  0.920565  2.591421
2    1 0.0000  1.594465  0.920565  7.783778
3    1 0.0000  1.594465  0.920565 12.976135
4    1 0.0000  1.594465  0.920565 18.168493
5    1 0.0000  1.594465  0.920565 23.360850
6    1 0.0000  1.594465  0.920565 28.553207
7    1 0.0000 -0.000001  3.682260  2.591421
8    1 0.0000 -0.000001  3.682260  7.783778
9    1 0.0000 -0.000001  3.682260 12.976135
10   1 0.0000 -0.000001  3.682260 18.168493
11   1 0.0000 -0.000001  3.682260 23.360850
12   1 0.0000 -0.000001  3.682260 28.553207
13   1 0.0000 -1.594466  6.443955  2.591421
14   1 0.0000 -1.594466  6.443955  7.783778
15   1 0.0000 -1.594466  6.443955 12.976135
16   1 0.0000 -1.594466  6.443955 18.168493
17   1 0.0000 -1.594466  6.443955 23.360850
18   1 0.0000 -1.594466  6.443955 28.553207
19   1 0.0000 -3.188932  9.205651  2.591421
20   1 0.0000 -3.188932  9.205651  7.783778
21   1 0.0000 -3.188932  9.205651 12.976135
22   1 0.0000 -3.188932  9.205651 18.168493
23   1 0.0000 -3.188932  9.205651 23.360850
24   1 0.0000 -3.188932  9.205651 28.553207
25   1 0.0000  4.783395  0.920565  2.591421
26   1 0.0000  4.783395  0.920565  7.783778
27   1 0.0000  4.783395  0.920565 12.976135
28   1 0.0000  4.783395  0.920565 18.168493
29   1 0.0000  4.783395  0.920565 23.360850
30   1 0.0000  4.783395  0.920565 28.553207
31   1 0.0000  3.188929  3.682260  2.591421
32   1 0.0000  3.188929  3.682260  7.783778
33   1 0.0000  3.188929  3.682260 12.976135
34   1 0.0000  3.188929  3.682260 18.168493
35   1 0.0000  3.188929  3.682260 23.360850
36   1 0.0000  3.188929  3.682260 28.553207
37   1 0.0000  1.594464  6.443955  2.591421
38   1 0.0000  1.594464  6.443955  7.783778
39   1 0.0000  1.594464  6.443955 12.976135
40   1 0.0000  1.594464  6.443955 18.168493
41   1 0.0000  1.594464  6.443955 23.360850
42   1 0.0000  1.594464  6.443955 28.553207
43   1 0.0000 -0.000002  9.205651  2.591421
44   1 0.0000 -0.000002  9.205651  7.783778
45   1 0.0000 -0.000002  9.205651 12.976135
46   1 0.0000 -0.000002  9.205651 18.168493
47   1 0.0000 -0.000002  9.205651 23.360850
48   1 0.0000 -0.000002  9.205651 28.553207
49   1 0.0000  7.972325  0.920565  2.591421
50   1 0.0000  7.972325  0.920565  7.783778
51   1 0.0000  7.972325  0.920565 12.976135
52   1 0.0000  7.972325  0.920565 18.168493
53   1 0.0000  7.972325  0.920565 23.360850
54   1 0.0000  7.972325  0.920565 28.553207
55   1 0.0000  6.377859  3.682260  2.591421
56   1 0.0000  6.377859  3.682260  7.783778
57   1 0.0000  6.377859  3.682260 12.976135
58   1 0.0000  6.377859  3.682260 18.168493
59   1 0.0000  6.377859  3.682260 23.360850
60   1 0.0000  6.377859  3.682260 28.553207
61   1 0.0000  4.783394  6.443955  2.591421
62   1 0.0000  4.783394  6.443955  7.783778
63   1 0.0000  4.783394  6.443955 12.976135
64   1 0.0000  4.783394  6.443955 18.168493
65   1 0.0000  4.783394  6.443955 23.360850
66   1 0.0000  4.783394  6.443955 28.553207
67   1 0.0000  3.188928  9.205651  2.591421
68   1 0.0000  3.188928  9.205651  7.783778
69   1 0.0000  3.188928  9.205651 12.976135
70   1 0.0000  3.188928  9.205651 18.168493
71   1 0.0000  3.188928  9.205651 23.360850
72   1 0.0000  3.188928  9.205651 28.553207
73   1 0.0000 11.161254  0.920565  2.591421
74   1 0.0000 11.161254  0.920565  7.783778
75   1 0.0000 11.161254  0.920565 12.976135
76   1 0.0000 11.161254  0.920565 18.168493
77   1 0.0000 11.161254  0.920565 23.360850
78   1 0.0000 11.161254  0.920565 28.553207
79   1 0.0000  9.566789  3.682260  2.591421
80   1 0.0000  9.566789  3.682260  7.783778
81   1 0.0000  9.566789  3.682260 12.976135
82   1 0.0000  9.566789  3.682260 18.168493
83   1 0.0000  9.566789  3.682260 23.360850
84   1 0.0000  9.566789  3.682260 28.553207
85   1 0.0000  7.972324  6.443955  2.591421
86   1 0.0000  7.972324  6.443955  7.783778
87   1 0.0000  7.972324  6.443955 12.976135
88   1 0.0000  7.972324  6.443955 18.168493
89   1 0.0000  7.972324  6.443955 23.360850
90   1 0.0000  7.972324  6.443955 28.553207
91   1 0.0000  6.377858  9.205651  2.591421
92   1 0.0000  6.377858  9.205651  7.783778
93   1 0.0000  6.377858  9.205651 12.976135
94   1 0.0000  6.377858  9.205651 18.168493
95   1 0.0000  6.377858  9.205651 23.360850
96   1 0.0000  6.377858  9.205651 28.553207
97   1 0.0000 -0.000000  1.841130  5.187600
98   1 0.0000 -0.000000  1.841130 10.379957
99   1 0.0000 -0.000000  1.841130 15.572314
100  1 0.0000 -0.000000  1.841130 20.764671
101  1 0.0000 -0.000000  1.841130 25.957029
102  1 0.0000 -0.000000  1.841130 31.149386
103  1 0.0000 -1.594466  4.602825  5.187600
104  1 0.0000 -1.594466  4.602825 10.379957
105  1 0.0000 -1.594466  4.602825 15.572314
106  1 0.0000 -1.594466  4.602825 20.764671
107  1 0.0000 -1.594466  4.602825 25.957029
108  1 0.0000 -1.594466  4.602825 31.149386
109  1 0.0000 -3.188931  7.364521  5.187600
110  1 0.0000 -3.188931  7.364521 10.379957
111  1 0.0000 -3.188931  7.364521 15.572314
112  1 0.0000 -3.188931  7.364521 20.764671
113  1 0.0000 -3.188931  7.364521 25.957029
114  1 0.0000 -3.188931  7.364521 31.149386
115  1 0.0000 -4.783397 10.126216  5.187600
116  1 0.0000 -4.783397 10.126216 10.379957
117  1 0.0000 -4.783397 10.126216 15.572314
118  1 0.0000 -4.783397 10.126216 20.764671
119  1 0.0000 -4.783397 10.126216 25.957029
120  1 0.0000 -4.783397 10.126216 31.149386
121  1 0.0000  3.188930  1.841130  5.187600
122  1 0.0000  3.188930  1.841130 10.379957
123  1 0.0000  3.188930  1.841130 15.572314
124  1 0.0000  3.188930  1.841130 20.764671
125  1 0.0000  3.188930  1.841130 25.957029
126  1 0.0000  3.188930  1.841130 31.149386
127  1 0.0000  1.594464  4.602825  5.187600
128  1 0.0000  1.594464  4.602825 10.379957
129  1 0.0000  1.594464  4.602825 15.572314
130  1 0.0000  1.594464  4.602825 20.764671
131  1 0.0000  1.594464  4.602825 25.957029
132  1 0.0000  1.594464  4.602825 31.149386
133  1 0.0000 -0.000001  7.364521  5.187600
134  1 0.0000 -0.000001  7.364521 10.379957
135  1 0.0000 -0.000001  7.364521 15.572314
136  1 0.0000 -0.000001  7.364521 20.764671
137  1 0.0000 -0.000001  7.364521 25.957029
138  1 0.0000 -0.000001  7.364521 31.149386
139  1 0.0000 -1.594467 10.126216  5.187600
140  1 0.0000 -1.594467 10.126216 10.379957
141  1 0.0000 -1.594467 10.126216 15.572314
142  1 0.0000 -1.594467 10.126216 20.764671
143  1 0.0000 -1.594467 10.126216 25.957029
144  1 0.0000 -1.594467 10.126216 31.149386
145  1 0.0000  6.377859  1.841130  5.187600
146  1 0.0000  6.377859  1.841130 10.379957
147  1 0.0000  6.377859  1.841130 15.572314
148  1 0.0000  6.377859  1.841130 20.764671
149  1 0.0000  6.377859  1.841130 25.957029
150  1 0.0000  6.377859  1.841130 31.149386
151  1 0.0000  4.783394  4.602825  5.187600
152  1 0.0000  4.783394  4.602825 10.379957
153  1 0.0000  4.783394  4.602825 15.572314
154  1 0.0000  4.783394  4.602825 20.764671
155  1 0.0000  4.783394  4.602825 25.957029
156  1 0.0000  4.783394  4.602825 31.149386
157  1 0.0000  3.188929  7.364521  5.187600
158  1 0.0000  3.188929  7.364521 10.379957
159  1 0.0000  3.188929  7.364521 15.572314
160  1 0.0000  3.188929  7.364521 20.764671
161  1 0.0000  3.188929  7.364521 25.957029
162  1 0.0000  3.188929  7.364521 31.149386
163  1 0.0000  1.594463 10.126216  5.187600
164  1 0.0000  1.594463 10.126216 10.379957
165  1 0.0000  1.594463 10.126216 15.572314
166  1 0.0000  1.594463 10.126216 20.764671
167  1 0.0000  1.594463 10.126216 25.957029
168  1 0.0000  1.594463 10.126216 31.149386
169  1 0.0000  9.566789  1.841130  5.187600
170  1 0.0000  9.566789  1.841130 10.379957
171  1 0.0000  9.566789  1.841130 15.572314
172  1 0.0000  9.566789  1.841130 20.764671
173  1 0.0000  9.566789  1.841130 25.957029
174  1 0.0000  9.566789  1.841130 31.149386
175  1 0.0000  7.972324  4.602825  5.187600
176  1 0.0000  7.972324  4.602825 10.379957
177  1 0.0000  7.972324  4.602825 15.572314
178  1 0.0000  7.972324  4.602825 20.764671
179  1 0.0000  7.972324  4.602825 25.957029
180  1 0.0000  7.972324  4.602825 31.149386
181  1 0.0000  6.377858  7.364521  5.187600
182  1 0.0000  6.377858  7.364521 10.379957
183  1 0.0000  6.377858  7.364521 15.572314
184  1 0.0000  6.377858  7.364521 20.764671
185  1 0.0000  6.377858  7.364521 25.957029
186  1 0.0000  6.377858  7.364521 31.149386
187  1 0.0000  4.783393 10.126216  5.187600
188  1 0.0000  4.783393 10.126216 10.379957
189  1 0.0000  4.783393 10.126216 15.572314
190  1 0.0000  4.783393 10.126216 20.764671
191  1 0.0000  4.783393 10.126216 25.957029
192  1 0.0000  4.783393 10.126216 31.149386
193  2 0.0000  1.594465  0.920565  4.548070
194  2 0.0000  1.594465  0.920565  9.740428
195  2 0.0000  1.594465  0.920565 14.932785
196  2 0.0000  1.594465  0.920565 20.125142
197  2 0.0000  1.594465  0.920565 25.317499
198  2 0.0000  1.594465  0.920565 30.509857
199  2 0.0000 -0.000001  3.682260  4.548070
200  2 0.0000 -0.000001  3.682260  9.740428
201  2 0.0000 -0.000001  3.682260 14.932785
202  2 0.0000 -0.000001  3.682260 20.125142
203  2 0.0000 -0.000001  3.682260 25.317499
204  2 0.0000 -0.000001  3.682260 30.509857
205  2 0.0000 -1.594466  6.443955  4.548070
206  2 0.0000 -1.594466  6.443955  9.740428
207  2 0.0000 -1.594466  6.443955 14.932785
208  2 0.0000 -1.594466  6.443955 20.125142
209  2 0.0000 -1.594466  6.443955 25.317499
210  2 0.0000 -1.594466  6.443955 30.509857
211  2 0.0000 -3.188932  9.205651  4.548070
212  2 0.0000 -3.188932  9.205651  9.740428
213  2 0.0000 -3.188932  9.205651 14.932785
214  2 0.0000 -3.188932  9.205651 20.125142
215  2 0.0000 -3.188932  9.205651 25.317499
216  2 0.0000 -3.188932  9.205651 30.509857
217  2 0.0000  4.783395  0.920565  4.548070
218  2 0.0000  4.783395  0.920565  9.740428
219  2 0.0000  4.783395  0.920565 14.932785
220  2 0.0000  4.783395  0.920565 20.125142
221  2 0.0000  4.783395  0.920565 25.317499
222  2 0.0000  4.783395  0.920565 30.509857
223  2 0.0000  3.188929  3.682260  4.548070
224  2 0.0000  3.188929  3.682260  9.740428
225  2 0.0000  3.188929  3.682260 14.932785
226  2 0.0000  3.188929  3.682260 20.125142
227  2 0.0000  3.188929  3.682260 25.317499
228  2 0.0000  3.188929  3.682260 30.509857
229  2 0.0000  1.594464  6.443955  4.548070
230  2 0.0000  1.594464  6.443955  9.740428
231  2 0.0000  1.594464  6.443955 14.932785
232  2 0.0000  1.594464  6.443955 20.125142
233  2 0.0000  1.594464  6.443955 25.317499
234  2 0.0000  1.594464  6.443955 30.509857
235  2 0.0000 -0.000002  9.205651  4.548070
236  2 0.0000 -0.000002  9.205651  9.740428
237  2 0.0000 -0.000002  9.205651 14.932785
238  2 0.0000 -0.000002  9.205651 20.125142
239  2 0.0000 -0.000002  9.205651 25.317499
240  2 0.0000 -0.000002  9.205651 30.509857
241  2 0.0000  7.972325  0.920565  4.548070
242  2 0.0000  7.972325  0.920565  9.740428
243  2 0.0000  7.972325  0.920565 14.932785
244  2 0.0000  7.972325  0.920565 20.125142
245  2 0.0000  7.972325  0.920565 25.317499
246  2 0.0000  7.972325  0.920565 30.509857
247  2 0.0000  6.377859  3.682260  4.548070
248  2 0.0000  6.377859  3.682260  9.740428
249  2 0.0000  6.377859  3.682260 14.932785
250  2 0.0000  6.377859  3.682260 20.125142
251  2 0.0000  6.377859  3.682260 25.317499
252  2 0.0000  6.377859  3.682260 30.509857
253  2 0.0000  4.783394  6.443955  4.548070
254  2 0.0000  4.783394  6.443955  9.740428
255  2 0.0000  4.783394  6.443955 14.932785
256  2 0.0000  4.783394  6.443955 20.125142
257  2 0.0000  4.783394  6.443955 25.317499
258  2 0.0000  4.783394  6.443955 30.509857
259  2 0.0000  3.188928  9.205651  4.548070
260  2 0.0000  3.188928  9.205651  9.740428
261  2 0.0000  3.188928  9.205651 14.932785
262  2 0.0000  3.188928  9.205651 20.125142
263  2 0.0000  3.188928  9.205651 25.317499
264  2 0.0000  3.188928  9.205651 30.509857
265  2 0.0000 11.161254  0.920565  4.548070
266  2 0.0000 11.161254  0.920565  9.740428
267  2 0.0000 11.161254  0.920565 14.932785
268  2 0.0000 11.161254  0.920565 20.125142
269  2 0.0000 11.161254  0.920565 25.317499
270  2 0.0000 11.161254  0.920565 30.509857
271  2 0.0000  9.566789  3.682260  4.548070
272  2 0.0000  9.566789  3.682260  9.740428
273  2 0.0000  9.566789  3.682260 14.932785
274  2 0.0000  9.566789  3.682260 20.125142
275  2 0.0000  9.566789  3.682260 25.317499
276  2 0.0000  9.566789  3.682260 30.509857
277  2 0.0000  7.972324  6.443955  4.548070
278  2 0.0000  7.972324  6.443955  9.740428
279  2 0.0000  7.972324  6.443955 14.932785
280  2 0.0000  7.972324  6.443955 20.125142
281  2 0.0000  7.972324  6.443955 25.317499
282  2 0.0000  7.972324  6.443955 30.509857
283  2 0.0000  6.377858  9.205651  4.548070
284  2 0.0000  6.377858  9.205651  9.740428
285  2 0.0000  6.377858  9.205651 14.932785
286  2 0.0000  6.377858  9.205651 20.125142
287  2 0.0000  6.377858  9.205651 25.317499
288  2 0.0000  6.377858  9.205651 30.509857
289  2 0.0000 -0.000000  1.841130  1.951892
290  2 0.0000 -0.000000  1.841130  7.144249
291  2 0.0000 -0.000000  1.841130 12.336606
292  2 0.0000 -0.000000  1.841130 17.528963
293  2 0.0000 -0.000000  1.841130 22.721321
294  2 0.0000 -0.000000  1.841130 27.913678
295  2 0.0000 -1.594466  4.602825  1.951892
296  2 0.0000 -1.594466  4.602825  7.144249
297  2 0.0000 -1.594466  4.602825 12.336606
298  2 0.0000 -1.594466  4.602825 17.528963
299  2 0.0000 -1.594466  4.602825 22.721321
300  2 0.0000 -1.594466  4.602825 27.913678
301  2 0.0000 -3.188931  7.364521  1.951892
302  2 0.0000 -3.188931  7.364521  7.144249
303  2 0.0000 -3.188931  7.364521 12.336606
304  2 0.0000 -3.188931  7.364521 17.528963
305  2 0.0000 -3.188931  7.364521 22.721321
306  2 0.0000 -3.188931  7.364521 27.913678
307  2 0.0000 -4.783397 10.126216  1.951892
308  2 0.0000 -4.783397 10.126216  7.144249
309  2 0.0000 -4.783397 10.126216 12.336606
310  2 0.0000 -4.783397 10.126216 17.528963
311  2 0.0000 -4.783397 10.126216 22.721321
312  2 0.0000 -4.783397 10.126216 27.913678
313  2 0.0000  3.188930  1.841130  1.951892
314  2 0.0000  3.188930  1.841130  7.144249
315  2 0.0000  3.188930  1.841130 12.336606
316  2 0.0000  3.188930  1.841130 17.528963
317  2 0.0000  3.188930  1.841130 22.721321
318  2 0.0000  3.188930  1.841130 27.913678
319  2 0.0000  1.594464  4.602825  1.951892
320  2 0.0000  1.594464  4.602825  7.144249
321  2 0.0000  1.594464  4.602825 12.336606
322  2 0.0000  1.594464  4.602825 17.528963
323  2 0.0000  1.594464  4.602825 22.721321
324  2 0.0000  1.594464  4.602825 27.913678
325  2 0.0000 -0.000001  7.364521  1.951892
326  2 0.0000 -0.000001  7.364521  7.144249
327  2 0.0000 -0.000001  7.364521 12.336606
328  2 0.0000 -0.000001  7.364521 17.528963
329  2 0.0000 -0.000001  7.364521 22.721321
330  2 0.0000 -0.000001  7.364521 27.913678
331  2 0.0000 -1.594467 10.126216  1.951892
332  2 0.0000 -1.594467 10.126216  7.144249
333  2 0.0000 -1.594467 10.126216 12.336606
334  2 0.0000 -1.594467 10.126216 17.528963
335  2 0.0000 -1.594467 10.126216 22.721321
336  2 0.0000 -1.594467 10.126216 27.913678
337  2 0.0000  6.377859  1.841130  1.951892
338  2 0.0000  6.377859  1.841130  7.144249
339  2 0.0000  6.377859  1.841130 12.336606
340  2 0.0000  6.377859  1.841130 17.528963
341  2 0.0000  6.377859  1.841130 22.721321
342  2 0.0000  6.377859  1.841130 27.913678
343  2 0.0000  4.783394  4.602825  1.951892
344  2 0.0000  4.783394  4.602825  7.144249
345  2 0.0000  4.783394  4.602825 12.336606
346  2 0.0000  4.783394  4.602825 17.528963
347  2 0.0000  4.783394  4.602825 22.721321
348  2 0.0000  4.783394  4.602825 27.913678
349  2 0.0000  3.188929  7.364521  1.951892
350  2 0.0000  3.188929  7.364521  7.144249
351  2 0.0000  3.188929  7.364521 12.336606
352  2 0.0000  3.188929  7.364521 17.528963
353  2 0.0000  3.188929  7.364521 22.721321
354  2 0.0000  3.188929  7.364521 27.913678
355  2 0.0000  1.594463 10.126216  1.951892
356  2 0.0000  1.594463 10.126216  7.144249
357  2 0.0000  1.594463 10.126216 12.336606
358  2 0.0000  1.594463 10.126216 17.528963
359  2 0.0000  1.594463 10.126216 22.721321
360  2 0.0000  1.594463 10.126216 27.913678
361  2 0.0000  9.566789  1.841130  1.951892
362  2 0.0000  9.566789  1.841130  7.144249
363  2 0.0000  9.566789  1.841130 12.336606
364  2 0.0000  9.566789  1.841130 17.528963
365  2 0.0000  9.566789  1.841130 22.721321
366  2 0.0000  9.566789  1.841130 27.913678
367  2 0.0000  7.972324  4.602825  1.951892
368  2 0.0000  7.972324  4.602825  7.144249
369  2 0.0000  7.972324  4.602825 12.336606
370  2 0.0000  7.972324  4.602825 17.528963
371  2 0.0000  7.972324  4.602825 22.721321
372  2 0.0000  7.972324  4.602825 27.913678
373  2 0.0000  6.377858  7.364521  1.951892
374  2 0.0000  6.377858  7.364521  7.144249
375  2 0.0000  6.377858  7.364521 12.336606
376  2 0.0000  6.377858  7.364521 17.528963
377  2 0.0000  6.377858  7.364521 22.721321
378  2 0.0000  6.377858  7.364521 27.913678
379  2 0.0000  4.783393 10.126216  1.951892
380  2 0.0000  4.783393 10.126216  7.144249
381  2 0.0000  4.783393 10.126216 12.336606
382  2 0.0000  4.783393 10.126216 17.528963
383  2 0.0000  4.783393 10.126216 22.721321
384  2 0.0000  4.783393 10.126216 27.913678

