Generated by pymatgen.io.lammps.data.LammpsData

768  atoms

  2  atom types

0.000000 14.372982  xlo xhi
0.000000 12.447379  ylo yhi
0.000000 96.087936  zlo zhi
-7.186501 0.000000 0.000000  xy xz yz

Masses

1  69.723
2  32.065

Atoms

1    1 0.0000 -0.000002  2.074563  5.227978
2    1 0.0000 -0.000002  2.074563 21.242634
3    1 0.0000 -0.000002  2.074563 37.257290
4    1 0.0000 -0.000002  2.074563 53.271946
5    1 0.0000 -0.000002  2.074563 69.286602
6    1 0.0000 -0.000002  2.074563 85.301258
7    1 0.0000 -1.796627  5.186408  5.227978
8    1 0.0000 -1.796627  5.186408 21.242634
9    1 0.0000 -1.796627  5.186408 37.257290
10   1 0.0000 -1.796627  5.186408 53.271946
11   1 0.0000 -1.796627  5.186408 69.286602
12   1 0.0000 -1.796627  5.186408 85.301258
13   1 0.0000 -3.593252  8.298253  5.227978
14   1 0.0000 -3.593252  8.298253 21.242634
15   1 0.0000 -3.593252  8.298253 37.257290
16   1 0.0000 -3.593252  8.298253 53.271946
17   1 0.0000 -3.593252  8.298253 69.286602
18   1 0.0000 -3.593252  8.298253 85.301258
19   1 0.0000 -5.389878 11.410097  5.227978
20   1 0.0000 -5.389878 11.410097 21.242634
21   1 0.0000 -5.389878 11.410097 37.257290
22   1 0.0000 -5.389878 11.410097 53.271946
23   1 0.0000 -5.389878 11.410097 69.286602
24   1 0.0000 -5.389878 11.410097 85.301258
25   1 0.0000  3.593244  2.074563  5.227978
26   1 0.0000  3.593244  2.074563 21.242634
27   1 0.0000  3.593244  2.074563 37.257290
28   1 0.0000  3.593244  2.074563 53.271946
29   1 0.0000  3.593244  2.074563 69.286602
30   1 0.0000  3.593244  2.074563 85.301258
31   1 0.0000  1.796619  5.186408  5.227978
32   1 0.0000  1.796619  5.186408 21.242634
33   1 0.0000  1.796619  5.186408 37.257290
34   1 0.0000  1.796619  5.186408 53.271946
35   1 0.0000  1.796619  5.186408 69.286602
36   1 0.0000  1.796619  5.186408 85.301258
37   1 0.0000 -0.000007  8.298253  5.227978
38   1 0.0000 -0.000007  8.298253 21.242634
39   1 0.0000 -0.000007  8.298253 37.257290
40   1 0.0000 -0.000007  8.298253 53.271946
41   1 0.0000 -0.000007  8.298253 69.286602
42   1 0.0000 -0.000007  8.298253 85.301258
43   1 0.0000 -1.796632 11.410097  5.227978
44   1 0.0000 -1.796632 11.410097 21.242634
45   1 0.0000 -1.796632 11.410097 37.257290
46   1 0.0000 -1.796632 11.410097 53.271946
47   1 0.0000 -1.796632 11.410097 69.286602
48   1 0.0000 -1.796632 11.410097 85.301258
49   1 0.0000  7.186489  2.074563  5.227978
50   1 0.0000  7.186489  2.074563 21.242634
51   1 0.0000  7.186489  2.074563 37.257290
52   1 0.0000  7.186489  2.074563 53.271946
53   1 0.0000  7.186489  2.074563 69.286602
54   1 0.0000  7.186489  2.074563 85.301258
55   1 0.0000  5.389864  5.186408  5.227978
56   1 0.0000  5.389864  5.186408 21.242634
57   1 0.0000  5.389864  5.186408 37.257290
58   1 0.0000  5.389864  5.186408 53.271946
59   1 0.0000  5.389864  5.186408 69.286602
60   1 0.0000  5.389864  5.186408 85.301258
61   1 0.0000  3.593239  8.298253  5.227978
62   1 0.0000  3.593239  8.298253 21.242634
63   1 0.0000  3.593239  8.298253 37.257290
64   1 0.0000  3.593239  8.298253 53.271946
65   1 0.0000  3.593239  8.298253 69.286602
66   1 0.0000  3.593239  8.298253 85.301258
67   1 0.0000  1.796613 11.410097  5.227978
68   1 0.0000  1.796613 11.410097 21.242634
69   1 0.0000  1.796613 11.410097 37.257290
70   1 0.0000  1.796613 11.410097 53.271946
71   1 0.0000  1.796613 11.410097 69.286602
72   1 0.0000  1.796613 11.410097 85.301258
73   1 0.0000 10.779735  2.074563  5.227978
74   1 0.0000 10.779735  2.074563 21.242634
75   1 0.0000 10.779735  2.074563 37.257290
76   1 0.0000 10.779735  2.074563 53.271946
77   1 0.0000 10.779735  2.074563 69.286602
78   1 0.0000 10.779735  2.074563 85.301258
79   1 0.0000  8.983110  5.186408  5.227978
80   1 0.0000  8.983110  5.186408 21.242634
81   1 0.0000  8.983110  5.186408 37.257290
82   1 0.0000  8.983110  5.186408 53.271946
83   1 0.0000  8.983110  5.186408 69.286602
84   1 0.0000  8.983110  5.186408 85.301258
85   1 0.0000  7.186484  8.298253  5.227978
86   1 0.0000  7.186484  8.298253 21.242634
87   1 0.0000  7.186484  8.298253 37.257290
88   1 0.0000  7.186484  8.298253 53.271946
89   1 0.0000  7.186484  8.298253 69.286602
90   1 0.0000  7.186484  8.298253 85.301258
91   1 0.0000  5.389859 11.410097  5.227978
92   1 0.0000  5.389859 11.410097 21.242634
93   1 0.0000  5.389859 11.410097 37.257290
94   1 0.0000  5.389859 11.410097 53.271946
95   1 0.0000  5.389859 11.410097 69.286602
96   1 0.0000  5.389859 11.410097 85.301258
97   1 0.0000  1.796622  1.037282 13.235306
98   1 0.0000  1.796622  1.037282 29.249962
99   1 0.0000  1.796622  1.037282 45.264618
100  1 0.0000  1.796622  1.037282 61.279274
101  1 0.0000  1.796622  1.037282 77.293930
102  1 0.0000  1.796622  1.037282 93.308586
103  1 0.0000 -0.000003  4.149126 13.235306
104  1 0.0000 -0.000003  4.149126 29.249962
105  1 0.0000 -0.000003  4.149126 45.264618
106  1 0.0000 -0.000003  4.149126 61.279274
107  1 0.0000 -0.000003  4.149126 77.293930
108  1 0.0000 -0.000003  4.149126 93.308586
109  1 0.0000 -1.796629  7.260971 13.235306
110  1 0.0000 -1.796629  7.260971 29.249962
111  1 0.0000 -1.796629  7.260971 45.264618
112  1 0.0000 -1.796629  7.260971 61.279274
113  1 0.0000 -1.796629  7.260971 77.293930
114  1 0.0000 -1.796629  7.260971 93.308586
115  1 0.0000 -3.593254 10.372816 13.235306
116  1 0.0000 -3.593254 10.372816 29.249962
117  1 0.0000 -3.593254 10.372816 45.264618
118  1 0.0000 -3.593254 10.372816 61.279274
119  1 0.0000 -3.593254 10.372816 77.293930
120  1 0.0000 -3.593254 10.372816 93.308586
121  1 0.0000  5.389867  1.037282 13.235306
122  1 0.0000  5.389867  1.037282 29.249962
123  1 0.0000  5.389867  1.037282 45.264618
124  1 0.0000  5.389867  1.037282 61.279274
125  1 0.0000  5.389867  1.037282 77.293930
126  1 0.0000  5.389867  1.037282 93.308586
127  1 0.0000  3.593242  4.149126 13.235306
128  1 0.0000  3.593242  4.149126 29.249962
129  1 0.0000  3.593242  4.149126 45.264618
130  1 0.0000  3.593242  4.149126 61.279274
131  1 0.0000  3.593242  4.149126 77.293930
132  1 0.0000  3.593242  4.149126 93.308586
133  1 0.0000  1.796617  7.260971 13.235306
134  1 0.0000  1.796617  7.260971 29.249962
135  1 0.0000  1.796617  7.260971 45.264618
136  1 0.0000  1.796617  7.260971 61.279274
137  1 0.0000  1.796617  7.260971 77.293930
138  1 0.0000  1.796617  7.260971 93.308586
139  1 0.0000 -0.000008 10.372816 13.235306
140  1 0.0000 -0.000008 10.372816 29.249962
141  1 0.0000 -0.000008 10.372816 45.264618
142  1 0.0000 -0.000008 10.372816 61.279274
143  1 0.0000 -0.000008 10.372816 77.293930
144  1 0.0000 -0.000008 10.372816 93.308586
145  1 0.0000  8.983113  1.037282 13.235306
146  1 0.0000  8.983113  1.037282 29.249962
147  1 0.0000  8.983113  1.037282 45.264618
148  1 0.0000  8.983113  1.037282 61.279274
149  1 0.0000  8.983113  1.037282 77.293930
150  1 0.0000  8.983113  1.037282 93.308586
151  1 0.0000  7.186488  4.149126 13.235306
152  1 0.0000  7.186488  4.149126 29.249962
153  1 0.0000  7.186488  4.149126 45.264618
154  1 0.0000  7.186488  4.149126 61.279274
155  1 0.0000  7.186488  4.149126 77.293930
156  1 0.0000  7.186488  4.149126 93.308586
157  1 0.0000  5.389862  7.260971 13.235306
158  1 0.0000  5.389862  7.260971 29.249962
159  1 0.0000  5.389862  7.260971 45.264618
160  1 0.0000  5.389862  7.260971 61.279274
161  1 0.0000  5.389862  7.260971 77.293930
162  1 0.0000  5.389862  7.260971 93.308586
163  1 0.0000  3.593237 10.372816 13.235306
164  1 0.0000  3.593237 10.372816 29.249962
165  1 0.0000  3.593237 10.372816 45.264618
166  1 0.0000  3.593237 10.372816 61.279274
167  1 0.0000  3.593237 10.372816 77.293930
168  1 0.0000  3.593237 10.372816 93.308586
169  1 0.0000 12.576358  1.037282 13.235306
170  1 0.0000 12.576358  1.037282 29.249962
171  1 0.0000 12.576358  1.037282 45.264618
172  1 0.0000 12.576358  1.037282 61.279274
173  1 0.0000 12.576358  1.037282 77.293930
174  1 0.0000 12.576358  1.037282 93.308586
175  1 0.0000 10.779733  4.149126 13.235306
176  1 0.0000 10.779733  4.149126 29.249962
177  1 0.0000 10.779733  4.149126 45.264618
178  1 0.0000 10.779733  4.149126 61.279274
179  1 0.0000 10.779733  4.149126 77.293930
180  1 0.0000 10.779733  4.149126 93.308586
181  1 0.0000  8.983108  7.260971 13.235306
182  1 0.0000  8.983108  7.260971 29.249962
183  1 0.0000  8.983108  7.260971 45.264618
184  1 0.0000  8.983108  7.260971 61.279274
185  1 0.0000  8.983108  7.260971 77.293930
186  1 0.0000  8.983108  7.260971 93.308586
187  1 0.0000  7.186483 10.372816 13.235306
188  1 0.0000  7.186483 10.372816 29.249962
189  1 0.0000  7.186483 10.372816 45.264618
190  1 0.0000  7.186483 10.372816 61.279274
191  1 0.0000  7.186483 10.372816 77.293930
192  1 0.0000  7.186483 10.372816 93.308586
193  1 0.0000  1.796622  1.037282 10.786678
194  1 0.0000  1.796622  1.037282 26.801334
195  1 0.0000  1.796622  1.037282 42.815990
196  1 0.0000  1.796622  1.037282 58.830646
197  1 0.0000  1.796622  1.037282 74.845302
198  1 0.0000  1.796622  1.037282 90.859958
199  1 0.0000 -0.000003  4.149126 10.786678
200  1 0.0000 -0.000003  4.149126 26.801334
201  1 0.0000 -0.000003  4.149126 42.815990
202  1 0.0000 -0.000003  4.149126 58.830646
203  1 0.0000 -0.000003  4.149126 74.845302
204  1 0.0000 -0.000003  4.149126 90.859958
205  1 0.0000 -1.796629  7.260971 10.786678
206  1 0.0000 -1.796629  7.260971 26.801334
207  1 0.0000 -1.796629  7.260971 42.815990
208  1 0.0000 -1.796629  7.260971 58.830646
209  1 0.0000 -1.796629  7.260971 74.845302
210  1 0.0000 -1.796629  7.260971 90.859958
211  1 0.0000 -3.593254 10.372816 10.786678
212  1 0.0000 -3.593254 10.372816 26.801334
213  1 0.0000 -3.593254 10.372816 42.815990
214  1 0.0000 -3.593254 10.372816 58.830646
215  1 0.0000 -3.593254 10.372816 74.845302
216  1 0.0000 -3.593254 10.372816 90.859958
217  1 0.0000  5.389867  1.037282 10.786678
218  1 0.0000  5.389867  1.037282 26.801334
219  1 0.0000  5.389867  1.037282 42.815990
220  1 0.0000  5.389867  1.037282 58.830646
221  1 0.0000  5.389867  1.037282 74.845302
222  1 0.0000  5.389867  1.037282 90.859958
223  1 0.0000  3.593242  4.149126 10.786678
224  1 0.0000  3.593242  4.149126 26.801334
225  1 0.0000  3.593242  4.149126 42.815990
226  1 0.0000  3.593242  4.149126 58.830646
227  1 0.0000  3.593242  4.149126 74.845302
228  1 0.0000  3.593242  4.149126 90.859958
229  1 0.0000  1.796617  7.260971 10.786678
230  1 0.0000  1.796617  7.260971 26.801334
231  1 0.0000  1.796617  7.260971 42.815990
232  1 0.0000  1.796617  7.260971 58.830646
233  1 0.0000  1.796617  7.260971 74.845302
234  1 0.0000  1.796617  7.260971 90.859958
235  1 0.0000 -0.000008 10.372816 10.786678
236  1 0.0000 -0.000008 10.372816 26.801334
237  1 0.0000 -0.000008 10.372816 42.815990
238  1 0.0000 -0.000008 10.372816 58.830646
239  1 0.0000 -0.000008 10.372816 74.845302
240  1 0.0000 -0.000008 10.372816 90.859958
241  1 0.0000  8.983113  1.037282 10.786678
242  1 0.0000  8.983113  1.037282 26.801334
243  1 0.0000  8.983113  1.037282 42.815990
244  1 0.0000  8.983113  1.037282 58.830646
245  1 0.0000  8.983113  1.037282 74.845302
246  1 0.0000  8.983113  1.037282 90.859958
247  1 0.0000  7.186488  4.149126 10.786678
248  1 0.0000  7.186488  4.149126 26.801334
249  1 0.0000  7.186488  4.149126 42.815990
250  1 0.0000  7.186488  4.149126 58.830646
251  1 0.0000  7.186488  4.149126 74.845302
252  1 0.0000  7.186488  4.149126 90.859958
253  1 0.0000  5.389862  7.260971 10.786678
254  1 0.0000  5.389862  7.260971 26.801334
255  1 0.0000  5.389862  7.260971 42.815990
256  1 0.0000  5.389862  7.260971 58.830646
257  1 0.0000  5.389862  7.260971 74.845302
258  1 0.0000  5.389862  7.260971 90.859958
259  1 0.0000  3.593237 10.372816 10.786678
260  1 0.0000  3.593237 10.372816 26.801334
261  1 0.0000  3.593237 10.372816 42.815990
262  1 0.0000  3.593237 10.372816 58.830646
263  1 0.0000  3.593237 10.372816 74.845302
264  1 0.0000  3.593237 10.372816 90.859958
265  1 0.0000 12.576358  1.037282 10.786678
266  1 0.0000 12.576358  1.037282 26.801334
267  1 0.0000 12.576358  1.037282 42.815990
268  1 0.0000 12.576358  1.037282 58.830646
269  1 0.0000 12.576358  1.037282 74.845302
270  1 0.0000 12.576358  1.037282 90.859958
271  1 0.0000 10.779733  4.149126 10.786678
272  1 0.0000 10.779733  4.149126 26.801334
273  1 0.0000 10.779733  4.149126 42.815990
274  1 0.0000 10.779733  4.149126 58.830646
275  1 0.0000 10.779733  4.149126 74.845302
276  1 0.0000 10.779733  4.149126 90.859958
277  1 0.0000  8.983108  7.260971 10.786678
278  1 0.0000  8.983108  7.260971 26.801334
279  1 0.0000  8.983108  7.260971 42.815990
280  1 0.0000  8.983108  7.260971 58.830646
281  1 0.0000  8.983108  7.260971 74.845302
282  1 0.0000  8.983108  7.260971 90.859958
283  1 0.0000  7.186483 10.372816 10.786678
284  1 0.0000  7.186483 10.372816 26.801334
285  1 0.0000  7.186483 10.372816 42.815990
286  1 0.0000  7.186483 10.372816 58.830646
287  1 0.0000  7.186483 10.372816 74.845302
288  1 0.0000  7.186483 10.372816 90.859958
289  1 0.0000 -0.000002  2.074563  2.779350
290  1 0.0000 -0.000002  2.074563 18.794006
291  1 0.0000 -0.000002  2.074563 34.808662
292  1 0.0000 -0.000002  2.074563 50.823318
293  1 0.0000 -0.000002  2.074563 66.837974
294  1 0.0000 -0.000002  2.074563 82.852630
295  1 0.0000 -1.796627  5.186408  2.779350
296  1 0.0000 -1.796627  5.186408 18.794006
297  1 0.0000 -1.796627  5.186408 34.808662
298  1 0.0000 -1.796627  5.186408 50.823318
299  1 0.0000 -1.796627  5.186408 66.837974
300  1 0.0000 -1.796627  5.186408 82.852630
301  1 0.0000 -3.593252  8.298253  2.779350
302  1 0.0000 -3.593252  8.298253 18.794006
303  1 0.0000 -3.593252  8.298253 34.808662
304  1 0.0000 -3.593252  8.298253 50.823318
305  1 0.0000 -3.593252  8.298253 66.837974
306  1 0.0000 -3.593252  8.298253 82.852630
307  1 0.0000 -5.389878 11.410097  2.779350
308  1 0.0000 -5.389878 11.410097 18.794006
309  1 0.0000 -5.389878 11.410097 34.808662
310  1 0.0000 -5.389878 11.410097 50.823318
311  1 0.0000 -5.389878 11.410097 66.837974
312  1 0.0000 -5.389878 11.410097 82.852630
313  1 0.0000  3.593244  2.074563  2.779350
314  1 0.0000  3.593244  2.074563 18.794006
315  1 0.0000  3.593244  2.074563 34.808662
316  1 0.0000  3.593244  2.074563 50.823318
317  1 0.0000  3.593244  2.074563 66.837974
318  1 0.0000  3.593244  2.074563 82.852630
319  1 0.0000  1.796619  5.186408  2.779350
320  1 0.0000  1.796619  5.186408 18.794006
321  1 0.0000  1.796619  5.186408 34.808662
322  1 0.0000  1.796619  5.186408 50.823318
323  1 0.0000  1.796619  5.186408 66.837974
324  1 0.0000  1.796619  5.186408 82.852630
325  1 0.0000 -0.000007  8.298253  2.779350
326  1 0.0000 -0.000007  8.298253 18.794006
327  1 0.0000 -0.000007  8.298253 34.808662
328  1 0.0000 -0.000007  8.298253 50.823318
329  1 0.0000 -0.000007  8.298253 66.837974
330  1 0.0000 -0.000007  8.298253 82.852630
331  1 0.0000 -1.796632 11.410097  2.779350
332  1 0.0000 -1.796632 11.410097 18.794006
333  1 0.0000 -1.796632 11.410097 34.808662
334  1 0.0000 -1.796632 11.410097 50.823318
335  1 0.0000 -1.796632 11.410097 66.837974
336  1 0.0000 -1.796632 11.410097 82.852630
337  1 0.0000  7.186489  2.074563  2.779350
338  1 0.0000  7.186489  2.074563 18.794006
339  1 0.0000  7.186489  2.074563 34.808662
340  1 0.0000  7.186489  2.074563 50.823318
341  1 0.0000  7.186489  2.074563 66.837974
342  1 0.0000  7.186489  2.074563 82.852630
343  1 0.0000  5.389864  5.186408  2.779350
344  1 0.0000  5.389864  5.186408 18.794006
345  1 0.0000  5.389864  5.186408 34.808662
346  1 0.0000  5.389864  5.186408 50.823318
347  1 0.0000  5.389864  5.186408 66.837974
348  1 0.0000  5.389864  5.186408 82.852630
349  1 0.0000  3.593239  8.298253  2.779350
350  1 0.0000  3.593239  8.298253 18.794006
351  1 0.0000  3.593239  8.298253 34.808662
352  1 0.0000  3.593239  8.298253 50.823318
353  1 0.0000  3.593239  8.298253 66.837974
354  1 0.0000  3.593239  8.298253 82.852630
355  1 0.0000  1.796613 11.410097  2.779350
356  1 0.0000  1.796613 11.410097 18.794006
357  1 0.0000  1.796613 11.410097 34.808662
358  1 0.0000  1.796613 11.410097 50.823318
359  1 0.0000  1.796613 11.410097 66.837974
360  1 0.0000  1.796613 11.410097 82.852630
361  1 0.0000 10.779735  2.074563  2.779350
362  1 0.0000 10.779735  2.074563 18.794006
363  1 0.0000 10.779735  2.074563 34.808662
364  1 0.0000 10.779735  2.074563 50.823318
365  1 0.0000 10.779735  2.074563 66.837974
366  1 0.0000 10.779735  2.074563 82.852630
367  1 0.0000  8.983110  5.186408  2.779350
368  1 0.0000  8.983110  5.186408 18.794006
369  1 0.0000  8.983110  5.186408 34.808662
370  1 0.0000  8.983110  5.186408 50.823318
371  1 0.0000  8.983110  5.186408 66.837974
372  1 0.0000  8.983110  5.186408 82.852630
373  1 0.0000  7.186484  8.298253  2.779350
374  1 0.0000  7.186484  8.298253 18.794006
375  1 0.0000  7.186484  8.298253 34.808662
376  1 0.0000  7.186484  8.298253 50.823318
377  1 0.0000  7.186484  8.298253 66.837974
378  1 0.0000  7.186484  8.298253 82.852630
379  1 0.0000  5.389859 11.410097  2.779350
380  1 0.0000  5.389859 11.410097 18.794006
381  1 0.0000  5.389859 11.410097 34.808662
382  1 0.0000  5.389859 11.410097 50.823318
383  1 0.0000  5.389859 11.410097 66.837974
384  1 0.0000  5.389859 11.410097 82.852630
385  2 0.0000 -0.000002  2.074563 14.303472
386  2 0.0000 -0.000002  2.074563 30.318128
387  2 0.0000 -0.000002  2.074563 46.332784
388  2 0.0000 -0.000002  2.074563 62.347440
389  2 0.0000 -0.000002  2.074563 78.362096
390  2 0.0000 -0.000002  2.074563 94.376752
391  2 0.0000 -1.796627  5.186408 14.303472
392  2 0.0000 -1.796627  5.186408 30.318128
393  2 0.0000 -1.796627  5.186408 46.332784
394  2 0.0000 -1.796627  5.186408 62.347440
395  2 0.0000 -1.796627  5.186408 78.362096
396  2 0.0000 -1.796627  5.186408 94.376752
397  2 0.0000 -3.593252  8.298253 14.303472
398  2 0.0000 -3.593252  8.298253 30.318128
399  2 0.0000 -3.593252  8.298253 46.332784
400  2 0.0000 -3.593252  8.298253 62.347440
401  2 0.0000 -3.593252  8.298253 78.362096
402  2 0.0000 -3.593252  8.298253 94.376752
403  2 0.0000 -5.389878 11.410097 14.303472
404  2 0.0000 -5.389878 11.410097 30.318128
405  2 0.0000 -5.389878 11.410097 46.332784
406  2 0.0000 -5.389878 11.410097 62.347440
407  2 0.0000 -5.389878 11.410097 78.362096
408  2 0.0000 -5.389878 11.410097 94.376752
409  2 0.0000  3.593244  2.074563 14.303472
410  2 0.0000  3.593244  2.074563 30.318128
411  2 0.0000  3.593244  2.074563 46.332784
412  2 0.0000  3.593244  2.074563 62.347440
413  2 0.0000  3.593244  2.074563 78.362096
414  2 0.0000  3.593244  2.074563 94.376752
415  2 0.0000  1.796619  5.186408 14.303472
416  2 0.0000  1.796619  5.186408 30.318128
417  2 0.0000  1.796619  5.186408 46.332784
418  2 0.0000  1.796619  5.186408 62.347440
419  2 0.0000  1.796619  5.186408 78.362096
420  2 0.0000  1.796619  5.186408 94.376752
421  2 0.0000 -0.000007  8.298253 14.303472
422  2 0.0000 -0.000007  8.298253 30.318128
423  2 0.0000 -0.000007  8.298253 46.332784
424  2 0.0000 -0.000007  8.298253 62.347440
425  2 0.0000 -0.000007  8.298253 78.362096
426  2 0.0000 -0.000007  8.298253 94.376752
427  2 0.0000 -1.796632 11.410097 14.303472
428  2 0.0000 -1.796632 11.410097 30.318128
429  2 0.0000 -1.796632 11.410097 46.332784
430  2 0.0000 -1.796632 11.410097 62.347440
431  2 0.0000 -1.796632 11.410097 78.362096
432  2 0.0000 -1.796632 11.410097 94.376752
433  2 0.0000  7.186489  2.074563 14.303472
434  2 0.0000  7.186489  2.074563 30.318128
435  2 0.0000  7.186489  2.074563 46.332784
436  2 0.0000  7.186489  2.074563 62.347440
437  2 0.0000  7.186489  2.074563 78.362096
438  2 0.0000  7.186489  2.074563 94.376752
439  2 0.0000  5.389864  5.186408 14.303472
440  2 0.0000  5.389864  5.186408 30.318128
441  2 0.0000  5.389864  5.186408 46.332784
442  2 0.0000  5.389864  5.186408 62.347440
443  2 0.0000  5.389864  5.186408 78.362096
444  2 0.0000  5.389864  5.186408 94.376752
445  2 0.0000  3.593239  8.298253 14.303472
446  2 0.0000  3.593239  8.298253 30.318128
447  2 0.0000  3.593239  8.298253 46.332784
448  2 0.0000  3.593239  8.298253 62.347440
449  2 0.0000  3.593239  8.298253 78.362096
450  2 0.0000  3.593239  8.298253 94.376752
451  2 0.0000  1.796613 11.410097 14.303472
452  2 0.0000  1.796613 11.410097 30.318128
453  2 0.0000  1.796613 11.410097 46.332784
454  2 0.0000  1.796613 11.410097 62.347440
455  2 0.0000  1.796613 11.410097 78.362096
456  2 0.0000  1.796613 11.410097 94.376752
457  2 0.0000 10.779735  2.074563 14.303472
458  2 0.0000 10.779735  2.074563 30.318128
459  2 0.0000 10.779735  2.074563 46.332784
460  2 0.0000 10.779735  2.074563 62.347440
461  2 0.0000 10.779735  2.074563 78.362096
462  2 0.0000 10.779735  2.074563 94.376752
463  2 0.0000  8.983110  5.186408 14.303472
464  2 0.0000  8.983110  5.186408 30.318128
465  2 0.0000  8.983110  5.186408 46.332784
466  2 0.0000  8.983110  5.186408 62.347440
467  2 0.0000  8.983110  5.186408 78.362096
468  2 0.0000  8.983110  5.186408 94.376752
469  2 0.0000  7.186484  8.298253 14.303472
470  2 0.0000  7.186484  8.298253 30.318128
471  2 0.0000  7.186484  8.298253 46.332784
472  2 0.0000  7.186484  8.298253 62.347440
473  2 0.0000  7.186484  8.298253 78.362096
474  2 0.0000  7.186484  8.298253 94.376752
475  2 0.0000  5.389859 11.410097 14.303472
476  2 0.0000  5.389859 11.410097 30.318128
477  2 0.0000  5.389859 11.410097 46.332784
478  2 0.0000  5.389859 11.410097 62.347440
479  2 0.0000  5.389859 11.410097 78.362096
480  2 0.0000  5.389859 11.410097 94.376752
481  2 0.0000  1.796622  1.037282  6.296144
482  2 0.0000  1.796622  1.037282 22.310800
483  2 0.0000  1.796622  1.037282 38.325456
484  2 0.0000  1.796622  1.037282 54.340112
485  2 0.0000  1.796622  1.037282 70.354768
486  2 0.0000  1.796622  1.037282 86.369424
487  2 0.0000 -0.000003  4.149126  6.296144
488  2 0.0000 -0.000003  4.149126 22.310800
489  2 0.0000 -0.000003  4.149126 38.325456
490  2 0.0000 -0.000003  4.149126 54.340112
491  2 0.0000 -0.000003  4.149126 70.354768
492  2 0.0000 -0.000003  4.149126 86.369424
493  2 0.0000 -1.796629  7.260971  6.296144
494  2 0.0000 -1.796629  7.260971 22.310800
495  2 0.0000 -1.796629  7.260971 38.325456
496  2 0.0000 -1.796629  7.260971 54.340112
497  2 0.0000 -1.796629  7.260971 70.354768
498  2 0.0000 -1.796629  7.260971 86.369424
499  2 0.0000 -3.593254 10.372816  6.296144
500  2 0.0000 -3.593254 10.372816 22.310800
501  2 0.0000 -3.593254 10.372816 38.325456
502  2 0.0000 -3.593254 10.372816 54.340112
503  2 0.0000 -3.593254 10.372816 70.354768
504  2 0.0000 -3.593254 10.372816 86.369424
505  2 0.0000  5.389867  1.037282  6.296144
506  2 0.0000  5.389867  1.037282 22.310800
507  2 0.0000  5.389867  1.037282 38.325456
508  2 0.0000  5.389867  1.037282 54.340112
509  2 0.0000  5.389867  1.037282 70.354768
510  2 0.0000  5.389867  1.037282 86.369424
511  2 0.0000  3.593242  4.149126  6.296144
512  2 0.0000  3.593242  4.149126 22.310800
513  2 0.0000  3.593242  4.149126 38.325456
514  2 0.0000  3.593242  4.149126 54.340112
515  2 0.0000  3.593242  4.149126 70.354768
516  2 0.0000  3.593242  4.149126 86.369424
517  2 0.0000  1.796617  7.260971  6.296144
518  2 0.0000  1.796617  7.260971 22.310800
519  2 0.0000  1.796617  7.260971 38.325456
520  2 0.0000  1.796617  7.260971 54.340112
521  2 0.0000  1.796617  7.260971 70.354768
522  2 0.0000  1.796617  7.260971 86.369424
523  2 0.0000 -0.000008 10.372816  6.296144
524  2 0.0000 -0.000008 10.372816 22.310800
525  2 0.0000 -0.000008 10.372816 38.325456
526  2 0.0000 -0.000008 10.372816 54.340112
527  2 0.0000 -0.000008 10.372816 70.354768
528  2 0.0000 -0.000008 10.372816 86.369424
529  2 0.0000  8.983113  1.037282  6.296144
530  2 0.0000  8.983113  1.037282 22.310800
531  2 0.0000  8.983113  1.037282 38.325456
532  2 0.0000  8.983113  1.037282 54.340112
533  2 0.0000  8.983113  1.037282 70.354768
534  2 0.0000  8.983113  1.037282 86.369424
535  2 0.0000  7.186488  4.149126  6.296144
536  2 0.0000  7.186488  4.149126 22.310800
537  2 0.0000  7.186488  4.149126 38.325456
538  2 0.0000  7.186488  4.149126 54.340112
539  2 0.0000  7.186488  4.149126 70.354768
540  2 0.0000  7.186488  4.149126 86.369424
541  2 0.0000  5.389862  7.260971  6.296144
542  2 0.0000  5.389862  7.260971 22.310800
543  2 0.0000  5.389862  7.260971 38.325456
544  2 0.0000  5.389862  7.260971 54.340112
545  2 0.0000  5.389862  7.260971 70.354768
546  2 0.0000  5.389862  7.260971 86.369424
547  2 0.0000  3.593237 10.372816  6.296144
548  2 0.0000  3.593237 10.372816 22.310800
549  2 0.0000  3.593237 10.372816 38.325456
550  2 0.0000  3.593237 10.372816 54.340112
551  2 0.0000  3.593237 10.372816 70.354768
552  2 0.0000  3.593237 10.372816 86.369424
553  2 0.0000 12.576358  1.037282  6.296144
554  2 0.0000 12.576358  1.037282 22.310800
555  2 0.0000 12.576358  1.037282 38.325456
556  2 0.0000 12.576358  1.037282 54.340112
557  2 0.0000 12.576358  1.037282 70.354768
558  2 0.0000 12.576358  1.037282 86.369424
559  2 0.0000 10.779733  4.149126  6.296144
560  2 0.0000 10.779733  4.149126 22.310800
561  2 0.0000 10.779733  4.149126 38.325456
562  2 0.0000 10.779733  4.149126 54.340112
563  2 0.0000 10.779733  4.149126 70.354768
564  2 0.0000 10.779733  4.149126 86.369424
565  2 0.0000  8.983108  7.260971  6.296144
566  2 0.0000  8.983108  7.260971 22.310800
567  2 0.0000  8.983108  7.260971 38.325456
568  2 0.0000  8.983108  7.260971 54.340112
569  2 0.0000  8.983108  7.260971 70.354768
570  2 0.0000  8.983108  7.260971 86.369424
571  2 0.0000  7.186483 10.372816  6.296144
572  2 0.0000  7.186483 10.372816 22.310800
573  2 0.0000  7.186483 10.372816 38.325456
574  2 0.0000  7.186483 10.372816 54.340112
575  2 0.0000  7.186483 10.372816 70.354768
576  2 0.0000  7.186483 10.372816 86.369424
577  2 0.0000  1.796622  1.037282  1.711184
578  2 0.0000  1.796622  1.037282 17.725840
579  2 0.0000  1.796622  1.037282 33.740496
580  2 0.0000  1.796622  1.037282 49.755152
581  2 0.0000  1.796622  1.037282 65.769808
582  2 0.0000  1.796622  1.037282 81.784464
583  2 0.0000 -0.000003  4.149126  1.711184
584  2 0.0000 -0.000003  4.149126 17.725840
585  2 0.0000 -0.000003  4.149126 33.740496
586  2 0.0000 -0.000003  4.149126 49.755152
587  2 0.0000 -0.000003  4.149126 65.769808
588  2 0.0000 -0.000003  4.149126 81.784464
589  2 0.0000 -1.796629  7.260971  1.711184
590  2 0.0000 -1.796629  7.260971 17.725840
591  2 0.0000 -1.796629  7.260971 33.740496
592  2 0.0000 -1.796629  7.260971 49.755152
593  2 0.0000 -1.796629  7.260971 65.769808
594  2 0.0000 -1.796629  7.260971 81.784464
595  2 0.0000 -3.593254 10.372816  1.711184
596  2 0.0000 -3.593254 10.372816 17.725840
597  2 0.0000 -3.593254 10.372816 33.740496
598  2 0.0000 -3.593254 10.372816 49.755152
599  2 0.0000 -3.593254 10.372816 65.769808
600  2 0.0000 -3.593254 10.372816 81.784464
601  2 0.0000  5.389867  1.037282  1.711184
602  2 0.0000  5.389867  1.037282 17.725840
603  2 0.0000  5.389867  1.037282 33.740496
604  2 0.0000  5.389867  1.037282 49.755152
605  2 0.0000  5.389867  1.037282 65.769808
606  2 0.0000  5.389867  1.037282 81.784464
607  2 0.0000  3.593242  4.149126  1.711184
608  2 0.0000  3.593242  4.149126 17.725840
609  2 0.0000  3.593242  4.149126 33.740496
610  2 0.0000  3.593242  4.149126 49.755152
611  2 0.0000  3.593242  4.149126 65.769808
612  2 0.0000  3.593242  4.149126 81.784464
613  2 0.0000  1.796617  7.260971  1.711184
614  2 0.0000  1.796617  7.260971 17.725840
615  2 0.0000  1.796617  7.260971 33.740496
616  2 0.0000  1.796617  7.260971 49.755152
617  2 0.0000  1.796617  7.260971 65.769808
618  2 0.0000  1.796617  7.260971 81.784464
619  2 0.0000 -0.000008 10.372816  1.711184
620  2 0.0000 -0.000008 10.372816 17.725840
621  2 0.0000 -0.000008 10.372816 33.740496
622  2 0.0000 -0.000008 10.372816 49.755152
623  2 0.0000 -0.000008 10.372816 65.769808
624  2 0.0000 -0.000008 10.372816 81.784464
625  2 0.0000  8.983113  1.037282  1.711184
626  2 0.0000  8.983113  1.037282 17.725840
627  2 0.0000  8.983113  1.037282 33.740496
628  2 0.0000  8.983113  1.037282 49.755152
629  2 0.0000  8.983113  1.037282 65.769808
630  2 0.0000  8.983113  1.037282 81.784464
631  2 0.0000  7.186488  4.149126  1.711184
632  2 0.0000  7.186488  4.149126 17.725840
633  2 0.0000  7.186488  4.149126 33.740496
634  2 0.0000  7.186488  4.149126 49.755152
635  2 0.0000  7.186488  4.149126 65.769808
636  2 0.0000  7.186488  4.149126 81.784464
637  2 0.0000  5.389862  7.260971  1.711184
638  2 0.0000  5.389862  7.260971 17.725840
639  2 0.0000  5.389862  7.260971 33.740496
640  2 0.0000  5.389862  7.260971 49.755152
641  2 0.0000  5.389862  7.260971 65.769808
642  2 0.0000  5.389862  7.260971 81.784464
643  2 0.0000  3.593237 10.372816  1.711184
644  2 0.0000  3.593237 10.372816 17.725840
645  2 0.0000  3.593237 10.372816 33.740496
646  2 0.0000  3.593237 10.372816 49.755152
647  2 0.0000  3.593237 10.372816 65.769808
648  2 0.0000  3.593237 10.372816 81.784464
649  2 0.0000 12.576358  1.037282  1.711184
650  2 0.0000 12.576358  1.037282 17.725840
651  2 0.0000 12.576358  1.037282 33.740496
652  2 0.0000 12.576358  1.037282 49.755152
653  2 0.0000 12.576358  1.037282 65.769808
654  2 0.0000 12.576358  1.037282 81.784464
655  2 0.0000 10.779733  4.149126  1.711184
656  2 0.0000 10.779733  4.149126 17.725840
657  2 0.0000 10.779733  4.149126 33.740496
658  2 0.0000 10.779733  4.149126 49.755152
659  2 0.0000 10.779733  4.149126 65.769808
660  2 0.0000 10.779733  4.149126 81.784464
661  2 0.0000  8.983108  7.260971  1.711184
662  2 0.0000  8.983108  7.260971 17.725840
663  2 0.0000  8.983108  7.260971 33.740496
664  2 0.0000  8.983108  7.260971 49.755152
665  2 0.0000  8.983108  7.260971 65.769808
666  2 0.0000  8.983108  7.260971 81.784464
667  2 0.0000  7.186483 10.372816  1.711184
668  2 0.0000  7.186483 10.372816 17.725840
669  2 0.0000  7.186483 10.372816 33.740496
670  2 0.0000  7.186483 10.372816 49.755152
671  2 0.0000  7.186483 10.372816 65.769808
672  2 0.0000  7.186483 10.372816 81.784464
673  2 0.0000 -0.000002  2.074563  9.718512
674  2 0.0000 -0.000002  2.074563 25.733168
675  2 0.0000 -0.000002  2.074563 41.747824
676  2 0.0000 -0.000002  2.074563 57.762480