Generated by pymatgen.io.lammps.data.LammpsData

128  atoms

  2  atom types

0.000000 7.186491  xlo xhi
0.000000 6.223689  ylo yhi
0.000000 64.058624  zlo zhi
-3.593251 0.000000 0.000000  xy xz yz

Masses

1  69.723
2  32.065

Atoms

1    1 0.0000 -0.000002 2.074563  5.227978
2    1 0.0000 -0.000002 2.074563 21.242634
3    1 0.0000 -0.000002 2.074563 37.257290
4    1 0.0000 -0.000002 2.074563 53.271946
5    1 0.0000 -1.796627 5.186408  5.227978
6    1 0.0000 -1.796627 5.186408 21.242634
7    1 0.0000 -1.796627 5.186408 37.257290
8    1 0.0000 -1.796627 5.186408 53.271946
9    1 0.0000  3.593244 2.074563  5.227978
10   1 0.0000  3.593244 2.074563 21.242634
11   1 0.0000  3.593244 2.074563 37.257290
12   1 0.0000  3.593244 2.074563 53.271946
13   1 0.0000  1.796619 5.186408  5.227978
14   1 0.0000  1.796619 5.186408 21.242634
15   1 0.0000  1.796619 5.186408 37.257290
16   1 0.0000  1.796619 5.186408 53.271946
17   1 0.0000  1.796622 1.037282 13.235306
18   1 0.0000  1.796622 1.037282 29.249962
19   1 0.0000  1.796622 1.037282 45.264618
20   1 0.0000  1.796622 1.037282 61.279274
21   1 0.0000 -0.000003 4.149126 13.235306
22   1 0.0000 -0.000003 4.149126 29.249962
23   1 0.0000 -0.000003 4.149126 45.264618
24   1 0.0000 -0.000003 4.149126 61.279274
25   1 0.0000  5.389867 1.037282 13.235306
26   1 0.0000  5.389867 1.037282 29.249962
27   1 0.0000  5.389867 1.037282 45.264618
28   1 0.0000  5.389867 1.037282 61.279274
29   1 0.0000  3.593242 4.149126 13.235306
30   1 0.0000  3.593242 4.149126 29.249962
31   1 0.0000  3.593242 4.149126 45.264618
32   1 0.0000  3.593242 4.149126 61.279274
33   1 0.0000  1.796622 1.037282 10.786678
34   1 0.0000  1.796622 1.037282 26.801334
35   1 0.0000  1.796622 1.037282 42.815990
36   1 0.0000  1.796622 1.037282 58.830646
37   1 0.0000 -0.000003 4.149126 10.786678
38   1 0.0000 -0.000003 4.149126 26.801334
39   1 0.0000 -0.000003 4.149126 42.815990
40   1 0.0000 -0.000003 4.149126 58.830646
41   1 0.0000  5.389867 1.037282 10.786678
42   1 0.0000  5.389867 1.037282 26.801334
43   1 0.0000  5.389867 1.037282 42.815990
44   1 0.0000  5.389867 1.037282 58.830646
45   1 0.0000  3.593242 4.149126 10.786678
46   1 0.0000  3.593242 4.149126 26.801334
47   1 0.0000  3.593242 4.149126 42.815990
48   1 0.0000  3.593242 4.149126 58.830646
49   1 0.0000 -0.000002 2.074563  2.779350
50   1 0.0000 -0.000002 2.074563 18.794006
51   1 0.0000 -0.000002 2.074563 34.808662
52   1 0.0000 -0.000002 2.074563 50.823318
53   1 0.0000 -1.796627 5.186408  2.779350
54   1 0.0000 -1.796627 5.186408 18.794006
55   1 0.0000 -1.796627 5.186408 34.808662
56   1 0.0000 -1.796627 5.186408 50.823318
57   1 0.0000  3.593244 2.074563  2.779350
58   1 0.0000  3.593244 2.074563 18.794006
59   1 0.0000  3.593244 2.074563 34.808662
60   1 0.0000  3.593244 2.074563 50.823318
61   1 0.0000  1.796619 5.186408  2.779350
62   1 0.0000  1.796619 5.186408 18.794006
63   1 0.0000  1.796619 5.186408 34.808662
64   1 0.0000  1.796619 5.186408 50.823318
65   2 0.0000 -0.000002 2.074563 14.303472
66   2 0.0000 -0.000002 2.074563 30.318128
67   2 0.0000 -0.000002 2.074563 46.332784
68   2 0.0000 -0.000002 2.074563 62.347440
69   2 0.0000 -1.796627 5.186408 14.303472
70   2 0.0000 -1.796627 5.186408 30.318128
71   2 0.0000 -1.796627 5.186408 46.332784
72   2 0.0000 -1.796627 5.186408 62.347440
73   2 0.0000  3.593244 2.074563 14.303472
74   2 0.0000  3.593244 2.074563 30.318128
75   2 0.0000  3.593244 2.074563 46.332784
76   2 0.0000  3.593244 2.074563 62.347440
77   2 0.0000  1.796619 5.186408 14.303472
78   2 0.0000  1.796619 5.186408 30.318128
79   2 0.0000  1.796619 5.186408 46.332784
80   2 0.0000  1.796619 5.186408 62.347440
81   2 0.0000  1.796622 1.037282  6.296144
82   2 0.0000  1.796622 1.037282 22.310800
83   2 0.0000  1.796622 1.037282 38.325456
84   2 0.0000  1.796622 1.037282 54.340112
85   2 0.0000 -0.000003 4.149126  6.296144
86   2 0.0000 -0.000003 4.149126 22.310800
87   2 0.0000 -0.000003 4.149126 38.325456
88   2 0.0000 -0.000003 4.149126 54.340112
89   2 0.0000  5.389867 1.037282  6.296144
90   2 0.0000  5.389867 1.037282 22.310800
91   2 0.0000  5.389867 1.037282 38.325456
92   2 0.0000  5.389867 1.037282 54.340112
93   2 0.0000  3.593242 4.149126  6.296144
94   2 0.0000  3.593242 4.149126 22.310800
95   2 0.0000  3.593242 4.149126 38.325456
96   2 0.0000  3.593242 4.149126 54.340112
97   2 0.0000  1.796622 1.037282  1.711184
98   2 0.0000  1.796622 1.037282 17.725840
99   2 0.0000  1.796622 1.037282 33.740496
100  2 0.0000  1.796622 1.037282 49.755152
101  2 0.0000 -0.000003 4.149126  1.711184
102  2 0.0000 -0.000003 4.149126 17.725840
103  2 0.0000 -0.000003 4.149126 33.740496
104  2 0.0000 -0.000003 4.149126 49.755152
105  2 0.0000  5.389867 1.037282  1.711184
106  2 0.0000  5.389867 1.037282 17.725840
107  2 0.0000  5.389867 1.037282 33.740496
108  2 0.0000  5.389867 1.037282 49.755152
109  2 0.0000  3.593242 4.149126  1.711184
110  2 0.0000  3.593242 4.149126 17.725840
111  2 0.0000  3.593242 4.149126 33.740496
112  2 0.0000  3.593242 4.149126 49.755152
113  2 0.0000 -0.000002 2.074563  9.718512
114  2 0.0000 -0.000002 2.074563 25.733168
115  2 0.0000 -0.000002 2.074563 41.747824
116  2 0.0000 -0.000002 2.074563 57.762480
117  2 0.0000 -1.796627 5.186408  9.718512
118  2 0.0000 -1.796627 5.186408 25.733168
119  2 0.0000 -1.796627 5.186408 41.747824
120  2 0.0000 -1.796627 5.186408 57.762480
121  2 0.0000  3.593244 2.074563  9.718512
122  2 0.0000  3.593244 2.074563 25.733168
123  2 0.0000  3.593244 2.074563 41.747824
124  2 0.0000  3.593244 2.074563 57.762480
125  2 0.0000  1.796619 5.186408  9.718512
126  2 0.0000  1.796619 5.186408 25.733168
127  2 0.0000  1.796619 5.186408 41.747824
128  2 0.0000  1.796619 5.186408 57.762480

