Generated by pymatgen.io.lammps.data.LammpsData

1536  atoms

   4  atom types

0.000000 25.581189  xlo xhi
0.000000 23.459143  ylo yhi
0.000000 32.090146  zlo zhi
-10.201267 -11.534942 -17.594357  xy xz yz

Masses

1  39.098300
2  30.973762
3   1.007940
4  15.999400

Atoms

1     1 0.0000   3.197649   0.000000  2.674179
2     1 0.0000   1.275158  -2.932393  8.022537
3     1 0.0000  -0.647332  -5.864786 13.370894
4     1 0.0000  -2.569822  -8.797179 18.719252
5     1 0.0000  -4.492313 -11.729572 24.067610
6     1 0.0000  -6.414803 -14.661964 29.415967
7     1 0.0000   0.647332   5.864786  2.674179
8     1 0.0000  -1.275158   2.932393  8.022537
9     1 0.0000  -3.197649   0.000000 13.370894
10    1 0.0000  -5.120139  -2.932393 18.719252
11    1 0.0000  -7.042629  -5.864786 24.067610
12    1 0.0000  -8.965120  -8.797179 29.415967
13    1 0.0000  -1.902985  11.729572  2.674179
14    1 0.0000  -3.825475   8.797179  8.022537
15    1 0.0000  -5.747965   5.864786 13.370894
16    1 0.0000  -7.670456   2.932393 18.719252
17    1 0.0000  -9.592946   0.000000 24.067610
18    1 0.0000 -11.515436  -2.932393 29.415967
19    1 0.0000  -4.453301  17.594357  2.674179
20    1 0.0000  -6.375792  14.661964  8.022537
21    1 0.0000  -8.298282  11.729572 13.370894
22    1 0.0000 -10.220772   8.797179 18.719252
23    1 0.0000 -12.143263   5.864786 24.067610
24    1 0.0000 -14.065753   2.932393 29.415967
25    1 0.0000   9.592946   0.000000  2.674179
26    1 0.0000   7.670456  -2.932393  8.022537
27    1 0.0000   5.747965  -5.864786 13.370894
28    1 0.0000   3.825475  -8.797179 18.719252
29    1 0.0000   1.902985 -11.729572 24.067610
30    1 0.0000  -0.019506 -14.661964 29.415967
31    1 0.0000   7.042629   5.864786  2.674179
32    1 0.0000   5.120139   2.932393  8.022537
33    1 0.0000   3.197649   0.000000 13.370894
34    1 0.0000   1.275158  -2.932393 18.719252
35    1 0.0000  -0.647332  -5.864786 24.067610
36    1 0.0000  -2.569822  -8.797179 29.415967
37    1 0.0000   4.492313  11.729572  2.674179
38    1 0.0000   2.569822   8.797179  8.022537
39    1 0.0000   0.647332   5.864786 13.370894
40    1 0.0000  -1.275158   2.932393 18.719252
41    1 0.0000  -3.197649   0.000000 24.067610
42    1 0.0000  -5.120139  -2.932393 29.415967
43    1 0.0000   1.941996  17.594357  2.674179
44    1 0.0000   0.019506  14.661964  8.022537
45    1 0.0000  -1.902985  11.729572 13.370894
46    1 0.0000  -3.825475   8.797179 18.719252
47    1 0.0000  -5.747965   5.864786 24.067610
48    1 0.0000  -7.670456   2.932393 29.415967
49    1 0.0000  15.988243   0.000000  2.674179
50    1 0.0000  14.065753  -2.932393  8.022537
51    1 0.0000  12.143263  -5.864786 13.370894
52    1 0.0000  10.220772  -8.797179 18.719252
53    1 0.0000   8.298282 -11.729572 24.067610
54    1 0.0000   6.375792 -14.661964 29.415967
55    1 0.0000  13.437927   5.864786  2.674179
56    1 0.0000  11.515436   2.932393  8.022537
57    1 0.0000   9.592946   0.000000 13.370894
58    1 0.0000   7.670456  -2.932393 18.719252
59    1 0.0000   5.747965  -5.864786 24.067610
60    1 0.0000   3.825475  -8.797179 29.415967
61    1 0.0000  10.887610  11.729572  2.674179
62    1 0.0000   8.965120   8.797179  8.022537
63    1 0.0000   7.042629   5.864786 13.370894
64    1 0.0000   5.120139   2.932393 18.719252
65    1 0.0000   3.197649   0.000000 24.067610
66    1 0.0000   1.275158  -2.932393 29.415967
67    1 0.0000   8.337293  17.594357  2.674179
68    1 0.0000   6.414803  14.661964  8.022537
69    1 0.0000   4.492313  11.729572 13.370894
70    1 0.0000   2.569822   8.797179 18.719252
71    1 0.0000   0.647332   5.864786 24.067610
72    1 0.0000  -1.275158   2.932393 29.415967
73    1 0.0000  22.383540   0.000000  2.674179
74    1 0.0000  20.461050  -2.932393  8.022537
75    1 0.0000  18.538560  -5.864786 13.370894
76    1 0.0000  16.616070  -8.797179 18.719252
77    1 0.0000  14.693579 -11.729572 24.067610
78    1 0.0000  12.771089 -14.661964 29.415967
79    1 0.0000  19.833224   5.864786  2.674179
80    1 0.0000  17.910733   2.932393  8.022537
81    1 0.0000  15.988243   0.000000 13.370894
82    1 0.0000  14.065753  -2.932393 18.719252
83    1 0.0000  12.143263  -5.864786 24.067610
84    1 0.0000  10.220772  -8.797179 29.415967
85    1 0.0000  17.282907  11.729572  2.674179
86    1 0.0000  15.360417   8.797179  8.022537
87    1 0.0000  13.437927   5.864786 13.370894
88    1 0.0000  11.515436   2.932393 18.719252
89    1 0.0000   9.592946   0.000000 24.067610
90    1 0.0000   7.670456  -2.932393 29.415967
91    1 0.0000  14.732591  17.594357  2.674179
92    1 0.0000  12.810100  14.661964  8.022537
93    1 0.0000  10.887610  11.729572 13.370894
94    1 0.0000   8.965120   8.797179 18.719252
95    1 0.0000   7.042629   5.864786 24.067610
96    1 0.0000   5.120139   2.932393 29.415967
97    1 0.0000   1.922490   2.932393 -0.000000
98    1 0.0000   0.000000   0.000000  5.348358
99    1 0.0000  -1.922490  -2.932393 10.696715
100   1 0.0000  -3.844981  -5.864786 16.045073
101   1 0.0000  -5.767471  -8.797179 21.393431
102   1 0.0000  -7.689961 -11.729572 26.741789
103   1 0.0000  -0.627826   8.797179 -0.000000
104   1 0.0000  -2.550317   5.864786  5.348358
105   1 0.0000  -4.472807   2.932393 10.696715
106   1 0.0000  -6.395297   0.000000 16.045073
107   1 0.0000  -8.317788  -2.932393 21.393431
108   1 0.0000 -10.240278  -5.864786 26.741789
109   1 0.0000  -3.178143  14.661964 -0.000000
110   1 0.0000  -5.100633  11.729572  5.348358
111   1 0.0000  -7.023124   8.797179 10.696715
112   1 0.0000  -8.945614   5.864786 16.045073
113   1 0.0000 -10.868104   2.932393 21.393431
114   1 0.0000 -12.790595   0.000000 26.741789
115   1 0.0000  -5.728460  20.526750 -0.000000
116   1 0.0000  -7.650950  17.594357  5.348358
117   1 0.0000  -9.573440  14.661964 10.696715
118   1 0.0000 -11.495931  11.729572 16.045073
119   1 0.0000 -13.418421   8.797179 21.393431
120   1 0.0000 -15.340911   5.864786 26.741789
121   1 0.0000   8.317788   2.932393  0.000000
122   1 0.0000   6.395297   0.000000  5.348358
123   1 0.0000   4.472807  -2.932393 10.696715
124   1 0.0000   2.550317  -5.864786 16.045073
125   1 0.0000   0.627826  -8.797179 21.393431
126   1 0.0000  -1.294664 -11.729572 26.741789
127   1 0.0000   5.767471   8.797179  0.000000
128   1 0.0000   3.844981   5.864786  5.348358
129   1 0.0000   1.922490   2.932393 10.696715
130   1 0.0000   0.000000   0.000000 16.045073
131   1 0.0000  -1.922490  -2.932393 21.393431
132   1 0.0000  -3.844981  -5.864786 26.741789
133   1 0.0000   3.217154  14.661964 -0.000000
134   1 0.0000   1.294664  11.729572  5.348358
135   1 0.0000  -0.627826   8.797179 10.696715
136   1 0.0000  -2.550317   5.864786 16.045073
137   1 0.0000  -4.472807   2.932393 21.393431
138   1 0.0000  -6.395297   0.000000 26.741789
139   1 0.0000   0.666838  20.526750  0.000000
140   1 0.0000  -1.255653  17.594357  5.348358
141   1 0.0000  -3.178143  14.661964 10.696715
142   1 0.0000  -5.100633  11.729572 16.045073
143   1 0.0000  -7.023124   8.797179 21.393431
144   1 0.0000  -8.945614   5.864786 26.741789
145   1 0.0000  14.713085   2.932393  0.000000
146   1 0.0000  12.790595   0.000000  5.348358
147   1 0.0000  10.868104  -2.932393 10.696715
148   1 0.0000   8.945614  -5.864786 16.045073
149   1 0.0000   7.023124  -8.797179 21.393431
150   1 0.0000   5.100633 -11.729572 26.741789
151   1 0.0000  12.162768   8.797179  0.000000
152   1 0.0000  10.240278   5.864786  5.348358
153   1 0.0000   8.317788   2.932393 10.696715
154   1 0.0000   6.395297   0.000000 16.045073
155   1 0.0000   4.472807  -2.932393 21.393431
156   1 0.0000   2.550317  -5.864786 26.741789
157   1 0.0000   9.612452  14.661964 -0.000000
158   1 0.0000   7.689961  11.729572  5.348358
159   1 0.0000   5.767471   8.797179 10.696715
160   1 0.0000   3.844981   5.864786 16.045073
161   1 0.0000   1.922490   2.932393 21.393431
162   1 0.0000   0.000000   0.000000 26.741789
163   1 0.0000   7.062135  20.526750  0.000000
164   1 0.0000   5.139645  17.594357  5.348358
165   1 0.0000   3.217154  14.661964 10.696715
166   1 0.0000   1.294664  11.729572 16.045073
167   1 0.0000  -0.627826   8.797179 21.393431
168   1 0.0000  -2.550317   5.864786 26.741789
169   1 0.0000  21.108382   2.932393  0.000000
170   1 0.0000  19.185892   0.000000  5.348358
171   1 0.0000  17.263401  -2.932393 10.696715
172   1 0.0000  15.340911  -5.864786 16.045073
173   1 0.0000  13.418421  -8.797179 21.393431
174   1 0.0000  11.495931 -11.729572 26.741789
175   1 0.0000  18.558065   8.797179  0.000000
176   1 0.0000  16.635575   5.864786  5.348358
177   1 0.0000  14.713085   2.932393 10.696715
178   1 0.0000  12.790595   0.000000 16.045073
179   1 0.0000  10.868104  -2.932393 21.393431
180   1 0.0000   8.945614  -5.864786 26.741789
181   1 0.0000  16.007749  14.661964  0.000000
182   1 0.0000  14.085259  11.729572  5.348358
183   1 0.0000  12.162768   8.797179 10.696715
184   1 0.0000  10.240278   5.864786 16.045073
185   1 0.0000   8.317788   2.932393 21.393431
186   1 0.0000   6.395297   0.000000 26.741789
187   1 0.0000  13.457432  20.526750  0.000000
188   1 0.0000  11.534942  17.594357  5.348358
189   1 0.0000   9.612452  14.661964 10.696715
190   1 0.0000   7.689961  11.729572 16.045073
191   1 0.0000   5.767471   8.797179 21.393431
192   1 0.0000   3.844981   5.864786 26.741789
193   2 0.0000  -1.275158   2.932393  2.674179
194   2 0.0000  -3.197649   0.000000  8.022537
195   2 0.0000  -5.120139  -2.932393 13.370894
196   2 0.0000  -7.042629  -5.864786 18.719252
197   2 0.0000  -8.965120  -8.797179 24.067610
198   2 0.0000 -10.887610 -11.729572 29.415967
199   2 0.0000  -3.825475   8.797179  2.674179
200   2 0.0000  -5.747965   5.864786  8.022537
201   2 0.0000  -7.670456   2.932393 13.370894
202   2 0.0000  -9.592946   0.000000 18.719252
203   2 0.0000 -11.515436  -2.932393 24.067610
204   2 0.0000 -13.437927  -5.864786 29.415967
205   2 0.0000  -6.375792  14.661964  2.674179
206   2 0.0000  -8.298282  11.729572  8.022537
207   2 0.0000 -10.220772   8.797179 13.370894
208   2 0.0000 -12.143263   5.864786 18.719252
209   2 0.0000 -14.065753   2.932393 24.067610
210   2 0.0000 -15.988243   0.000000 29.415967
211   2 0.0000  -8.926108  20.526750  2.674179
212   2 0.0000 -10.848599  17.594357  8.022537
213   2 0.0000 -12.771089  14.661964 13.370894
214   2 0.0000 -14.693579  11.729572 18.719252
215   2 0.0000 -16.616069   8.797179 24.067610
216   2 0.0000 -18.538560   5.864786 29.415967
217   2 0.0000   5.120139   2.932393  2.674179
218   2 0.0000   3.197649   0.000000  8.022537
219   2 0.0000   1.275158  -2.932393 13.370894
220   2 0.0000  -0.647332  -5.864786 18.719252
221   2 0.0000  -2.569822  -8.797179 24.067610
222   2 0.0000  -4.492313 -11.729572 29.415967
223   2 0.0000   2.569822   8.797179  2.674179
224   2 0.0000   0.647332   5.864786  8.022537
225   2 0.0000  -1.275158   2.932393 13.370894
226   2 0.0000  -3.197649   0.000000 18.719252
227   2 0.0000  -5.120139  -2.932393 24.067610
228   2 0.0000  -7.042629  -5.864786 29.415967
229   2 0.0000   0.019506  14.661964  2.674179
230   2 0.0000  -1.902985  11.729572  8.022537
231   2 0.0000  -3.825475   8.797179 13.370894
232   2 0.0000  -5.747965   5.864786 18.719252
233   2 0.0000  -7.670456   2.932393 24.067610
234   2 0.0000  -9.592946   0.000000 29.415967
235   2 0.0000  -2.530811  20.526750  2.674179
236   2 0.0000  -4.453301  17.594357  8.022537
237   2 0.0000  -6.375792  14.661964 13.370894
238   2 0.0000  -8.298282  11.729572 18.719252
239   2 0.0000 -10.220772   8.797179 24.067610
240   2 0.0000 -12.143263   5.864786 29.415967
241   2 0.0000  11.515436   2.932393  2.674179
242   2 0.0000   9.592946   0.000000  8.022537
243   2 0.0000   7.670456  -2.932393 13.370894
244   2 0.0000   5.747965  -5.864786 18.719252
245   2 0.0000   3.825475  -8.797179 24.067610
246   2 0.0000   1.902985 -11.729572 29.415967
247   2 0.0000   8.965120   8.797179  2.674179
248   2 0.0000   7.042629   5.864786  8.022537
249   2 0.0000   5.120139   2.932393 13.370894
250   2 0.0000   3.197649   0.000000 18.719252
251   2 0.0000   1.275158  -2.932393 24.067610
252   2 0.0000  -0.647332  -5.864786 29.415967
253   2 0.0000   6.414803  14.661964  2.674179
254   2 0.0000   4.492313  11.729572  8.022537
255   2 0.0000   2.569822   8.797179 13.370894
256   2 0.0000   0.647332   5.864786 18.719252
257   2 0.0000  -1.275158   2.932393 24.067610
258   2 0.0000  -3.197649   0.000000 29.415967
259   2 0.0000   3.864486  20.526750  2.674179
260   2 0.0000   1.941996  17.594357  8.022537
261   2 0.0000   0.019506  14.661964 13.370894
262   2 0.0000  -1.902985  11.729572 18.719252
263   2 0.0000  -3.825475   8.797179 24.067610
264   2 0.0000  -5.747965   5.864786 29.415967
265   2 0.0000  17.910733   2.932393  2.674179
266   2 0.0000  15.988243   0.000000  8.022537
267   2 0.0000  14.065753  -2.932393 13.370894
268   2 0.0000  12.143263  -5.864786 18.719252
269   2 0.0000  10.220772  -8.797179 24.067610
270   2 0.0000   8.298282 -11.729572 29.415967
271   2 0.0000  15.360417   8.797179  2.674179
272   2 0.0000  13.437927   5.864786  8.022537
273   2 0.0000  11.515436   2.932393 13.370894
274   2 0.0000   9.592946   0.000000 18.719252
275   2 0.0000   7.670456  -2.932393 24.067610
276   2 0.0000   5.747965  -5.864786 29.415967
277   2 0.0000  12.810100  14.661964  2.674179
278   2 0.0000  10.887610  11.729572  8.022537
279   2 0.0000   8.965120   8.797179 13.370894
280   2 0.0000   7.042629   5.864786 18.719252
281   2 0.0000   5.120139   2.932393 24.067610
282   2 0.0000   3.197649   0.000000 29.415967
283   2 0.0000  10.259784  20.526750  2.674179
284   2 0.0000   8.337293  17.594357  8.022537
285   2 0.0000   6.414803  14.661964 13.370894
286   2 0.0000   4.492313  11.729572 18.719252
287   2 0.0000   2.569822   8.797179 24.067610
288   2 0.0000   0.647332   5.864786 29.415967
289   2 0.0000   0.000000   0.000000  0.000000
290   2 0.0000  -1.922490  -2.932393  5.348358
291   2 0.0000  -3.844981  -5.864786 10.696715
292   2 0.0000  -5.767471  -8.797179 16.045073
293   2 0.0000  -7.689961 -11.729572 21.393431
294   2 0.0000  -9.612452 -14.661964 26.741789
295   2 0.0000  -2.550317   5.864786 -0.000000
296   2 0.0000  -4.472807   2.932393  5.348358
297   2 0.0000  -6.395297   0.000000 10.696715
298   2 0.0000  -8.317788  -2.932393 16.045073
299   2 0.0000 -10.240278  -5.864786 21.393431
300   2 0.0000 -12.162768  -8.797179 26.741789
301   2 0.0000  -5.100633  11.729572 -0.000000
302   2 0.0000  -7.023124   8.797179  5.348358
303   2 0.0000  -8.945614   5.864786 10.696715
304   2 0.0000 -10.868104   2.932393 16.045073
305   2 0.0000 -12.790595   0.000000 21.393431
306   2 0.0000 -14.713085  -2.932393 26.741789
307   2 0.0000  -7.650950  17.594357 -0.000000
308   2 0.0000  -9.573440  14.661964  5.348358
309   2 0.0000 -11.495931  11.729572 10.696715
310   2 0.0000 -13.418421   8.797179 16.045073
311   2 0.0000 -15.340911   5.864786 21.393431
312   2 0.0000 -17.263401   2.932393 26.741789
313   2 0.0000   6.395297  -0.000000  0.000000
314   2 0.0000   4.472807  -2.932393  5.348358
315   2 0.0000   2.550317  -5.864786 10.696715
316   2 0.0000   0.627826  -8.797179 16.045073
317   2 0.0000  -1.294664 -11.729572 21.393431
318   2 0.0000  -3.217154 -14.661964 26.741789
319   2 0.0000   3.844981   5.864786 -0.000000
320   2 0.0000   1.922490   2.932393  5.348358
321   2 0.0000   0.000000   0.000000 10.696715
322   2 0.0000  -1.922490  -2.932393 16.045073
323   2 0.0000  -3.844981  -5.864786 21.393431
324   2 0.0000  -5.767471  -8.797179 26.741789
325   2 0.0000   1.294664  11.729572 -0.000000
326   2 0.0000  -0.627826   8.797179  5.348358
327   2 0.0000  -2.550317   5.864786 10.696715
328   2 0.0000  -4.472807   2.932393 16.045073
329   2 0.0000  -6.395297   0.000000 21.393431
330   2 0.0000  -8.317788  -2.932393 26.741789
331   2 0.0000  -1.255653  17.594357 -0.000000
332   2 0.0000  -3.178143  14.661964  5.348358
333   2 0.0000  -5.100633  11.729572 10.696715
334   2 0.0000  -7.023124   8.797179 16.045073
335   2 0.0000  -8.945614   5.864786 21.393431
336   2 0.0000 -10.868104   2.932393 26.741789
337   2 0.0000  12.790595  -0.000000  0.000000
338   2 0.0000  10.868104  -2.932393  5.348358
339   2 0.0000   8.945614  -5.864786 10.696715
340   2 0.0000   7.023124  -8.797179 16.045073
341   2 0.0000   5.100633 -11.729572 21.393431
342   2 0.0000   3.178143 -14.661964 26.741789
343   2 0.0000  10.240278   5.864786  0.000000
344   2 0.0000   8.317788   2.932393  5.348358
345   2 0.0000   6.395297   0.000000 10.696715
346   2 0.0000   4.472807  -2.932393 16.045073
347   2 0.0000   2.550317  -5.864786 21.393431
348   2 0.0000   0.627826  -8.797179 26.741789
349   2 0.0000   7.689961  11.729572 -0.000000
350   2 0.0000   5.767471   8.797179  5.348358
351   2 0.0000   3.844981   5.864786 10.696715
352   2 0.0000   1.922490   2.932393 16.045073
353   2 0.0000   0.000000   0.000000 21.393431
354   2 0.0000  -1.922490  -2.932393 26.741789
355   2 0.0000   5.139645  17.594357 -0.000000
356   2 0.0000   3.217154  14.661964  5.348358
357   2 0.0000   1.294664  11.729572 10.696715
358   2 0.0000  -0.627826   8.797179 16.045073
359   2 0.0000  -2.550317   5.864786 21.393431
360   2 0.0000  -4.472807   2.932393 26.741789
361   2 0.0000  19.185892  -0.000000  0.000000
362   2 0.0000  17.263401  -2.932393  5.348358
363   2 0.0000  15.340911  -5.864786 10.696715
364   2 0.0000  13.418421  -8.797179 16.045073
365   2 0.0000  11.495931 -11.729572 21.393431
366   2 0.0000   9.573440 -14.661964 26.741789
367   2 0.0000  16.635575   5.864786  0.000000
368   2 0.0000  14.713085   2.932393  5.348358
369   2 0.0000  12.790595   0.000000 10.696715
370   2 0.0000  10.868104  -2.932393 16.045073
371   2 0.0000   8.945614  -5.864786 21.393431
372   2 0.0000   7.023124  -8.797179 26.741789
373   2 0.0000  14.085259  11.729572 -0.000000
374   2 0.0000  12.162768   8.797179  5.348358
375   2 0.0000  10.240278   5.864786 10.696715
376   2 0.0000   8.317788   2.932393 16.045073
377   2 0.0000   6.395297   0.000000 21.393431
378   2 0.0000   4.472807  -2.932393 26.741789
379   2 0.0000  11.534942  17.594357  0.000000
380   2 0.0000   9.612452  14.661964  5.348358
381   2 0.0000   7.689961  11.729572 10.696715
382   2 0.0000   5.767471   8.797179 16.045073
383   2 0.0000   3.844981   5.864786 21.393431
384   2 0.0000   1.922490   2.932393 26.741789
385   3 0.0000  -2.245424   2.520307  4.762868
386   3 0.0000  -4.167914  -0.412086 10.111225
387   3 0.0000  -6.090404  -3.344479 15.459583
388   3 0.0000  -8.012894  -6.276872 20.807941
389   3 0.0000  -9.935385  -9.209265 26.156298
390   3 0.0000 -11.857875 -12.141658 31.504656
391   3 0.0000  -4.795740   8.385092  4.762868
392   3 0.0000  -6.718231   5.452700 10.111225
393   3 0.0000  -8.640721   2.520307 15.459583
394   3 0.0000 -10.563211  -0.412086 20.807941
395   3 0.0000 -12.485701  -3.344479 26.156298
396   3 0.0000 -14.408192  -6.276872 31.504656
397   3 0.0000  -7.346057  14.249878  4.762868
398   3 0.0000  -9.268547  11.317485 10.111225
399   3 0.0000 -11.191037   8.385092 15.459583
400   3 0.0000 -13.113528   5.452700 20.807941
401   3 0.0000 -15.036018   2.520307 26.156298
402   3 0.0000 -16.958508  -0.412086 31.504656
403   3 0.0000  -9.896373  20.114664  4.762868
404   3 0.0000 -11.818864  17.182271 10.111225
405   3 0.0000 -13.741354  14.249878 15.459583
406   3 0.0000 -15.663844  11.317485 20.807941
407   3 0.0000 -17.586335   8.385092 26.156298
408   3 0.0000 -19.508825   5.452700 31.504656
409   3 0.0000   4.149874   2.520307  4.762868
410   3 0.0000   2.227383  -0.412086 10.111225
411   3 0.0000   0.304893  -3.344479 15.459583
412   3 0.0000  -1.617597  -6.276872 20.807941
413   3 0.0000  -3.540088  -9.209265 26.156298
414   3 0.0000  -5.462578 -12.141658 31.504656
415   3 0.0000   1.599557   8.385092  4.762868
416   3 0.0000  -0.322933   5.452700 10.111225
417   3 0.0000  -2.245424   2.520307 15.459583
418   3 0.0000  -4.167914  -0.412086 20.807941
419   3 0.0000  -6.090404  -3.344479 26.156298
420   3 0.0000  -8.012894  -6.276872 31.504656
421   3 0.0000  -0.950760  14.249878  4.762868
422   3 0.0000  -2.873250  11.317485 10.111225
423   3 0.0000  -4.795740   8.385092 15.459583
424   3 0.0000  -6.718231   5.452700 20.807941
425   3 0.0000  -8.640721   2.520307 26.156298
426   3 0.0000 -10.563211  -0.412086 31.504656
427   3 0.0000  -3.501076  20.114664  4.762868
428   3 0.0000  -5.423567  17.182271 10.111225
429   3 0.0000  -7.346057  14.249878 15.459583
430   3 0.0000  -9.268547  11.317485 20.807941
431   3 0.0000 -11.191037   8.385092 26.156298
432   3 0.0000 -13.113528   5.452700 31.504656
433   3 0.0000  10.545171   2.520307  4.762868
434   3 0.0000   8.622681  -0.412086 10.111225
435   3 0.0000   6.700190  -3.344479 15.459583
436   3 0.0000   4.777700  -6.276872 20.807941
437   3 0.0000   2.855210  -9.209265 26.156298
438   3 0.0000   0.932719 -12.141658 31.504656
439   3 0.0000   7.994854   8.385092  4.762868
440   3 0.0000   6.072364   5.452700 10.111225
441   3 0.0000   4.149874   2.520307 15.459583
442   3 0.0000   2.227383  -0.412086 20.807941
443   3 0.0000   0.304893  -3.344479 26.156298
444   3 0.0000  -1.617597  -6.276872 31.504656
445   3 0.0000   5.444538  14.249878  4.762868
446   3 0.0000   3.522047  11.317485 10.111225
447   3 0.0000   1.599557   8.385092 15.459583
448   3 0.0000  -0.322933   5.452700 20.807941
449   3 0.0000  -2.245424   2.520307 26.156298
450   3 0.0000  -4.167914  -0.412086 31.504656
451   3 0.0000   2.894221  20.114664  4.762868
452   3 0.0000   0.971731  17.182271 10.111225
453   3 0.0000  -0.950760  14.249878 15.459583
454   3 0.0000  -2.873250  11.317485 20.807941
455   3 0.0000  -4.795740   8.385092 26.156298
456   3 0.0000  -6.718231   5.452700 31.504656
457   3 0.0000  16.940468   2.520307  4.762868
458   3 0.0000  15.017978  -0.412086 10.111225
459   3 0.0000  13.095488  -3.344479 15.459583
460   3 0.0000  11.172997  -6.276872 20.807941
461   3 0.0000   9.250507  -9.209265 26.156298
462   3 0.0000   7.328017 -12.141658 31.504656
463   3 0.0000  14.390152   8.385092  4.762868
464   3 0.0000  12.467661   5.452700 10.111225
465   3 0.0000  10.545171   2.520307 15.459583
466   3 0.0000   8.622681  -0.412086 20.807941
467   3 0.0000   6.700190  -3.344479 26.156298
468   3 0.0000   4.777700  -6.276872 31.504656
469   3 0.0000  11.839835  14.249878  4.762868
470   3 0.0000   9.917345  11.317485 10.111225
471   3 0.0000   7.994854   8.385092 15.459583
472   3 0.0000   6.072364   5.452700 20.807941
473   3 0.0000   4.149874   2.520307 26.156298
474   3 0.0000   2.227383  -0.412086 31.504656
475   3 0.0000   9.289518  20.114664  4.762868
476   3 0.0000   7.367028  17.182271 10.111225
477   3 0.0000   5.444538  14.249878 15.459583
478   3 0.0000   3.522047  11.317485 20.807941
479   3 0.0000   1.599557   8.385092 26.156298
480   3 0.0000  -0.322933   5.452700 31.504656
481   3 0.0000   5.129159   1.878283  0.585490
482   3 0.0000   3.206669  -1.054110  5.933848
483   3 0.0000   1.284178  -3.986503 11.282205
484   3 0.0000  -0.638312  -6.918896 16.630563
485   3 0.0000  -2.560802  -9.851289 21.978921
486   3 0.0000  -4.483293 -12.783682 27.327279
487   3 0.0000   2.578842   7.743068  0.585490
488   3 0.0000   0.656352   4.810676  5.933848
489   3 0.0000  -1.266138   1.878283 11.282205
490   3 0.0000  -3.188629  -1.054110 16.630563
491   3 0.0000  -5.111119  -3.986503 21.978921
492   3 0.0000  -7.033609  -6.918896 27.327279
493   3 0.0000   0.028526  13.607854  0.585490
494   3 0.0000  -1.893965  10.675461  5.933848
495   3 0.0000  -3.816455   7.743068 11.282205
496   3 0.0000  -5.738945   4.810676 16.630563
497   3 0.0000  -7.661436   1.878283 21.978921
498   3 0.0000  -9.583926  -1.054110 27.327279
499   3 0.0000  -2.521791  19.472640  0.585490
500   3 0.0000  -4.444281  16.540247  5.933848
501   3 0.0000  -6.366772  13.607854 11.282205
502   3 0.0000  -8.289262  10.675461 16.630563
503   3 0.0000 -10.211752   7.743068 21.978921
504   3 0.0000 -12.134242   4.810676 27.327279
505   3 0.0000  11.524456   1.878283  0.585490
506   3 0.0000   9.601966  -1.054110  5.933848
507   3 0.0000   7.679476  -3.986503 11.282205
508   3 0.0000   5.756985  -6.918896 16.630563
509   3 0.0000   3.834495  -9.851289 21.978921
510   3 0.0000   1.912005 -12.783682 27.327279
511   3 0.0000   8.974140   7.743068  0.585490
512   3 0.0000   7.051649   4.810676  5.933848
513   3 0.0000   5.129159   1.878283 11.282205
514   3 0.0000   3.206669  -1.054110 16.630563
515   3 0.0000   1.284178  -3.986503 21.978921
516   3 0.0000  -0.638312  -6.918896 27.327279
517   3 0.0000   6.423823  13.607854  0.585490
518   3 0.0000   4.501333  10.675461  5.933848
519   3 0.0000   2.578842   7.743068 11.282205
520   3 0.0000   0.656352   4.810676 16.630563
521   3 0.0000  -1.266138   1.878283 21.978921
522   3 0.0000  -3.188629  -1.054110 27.327279
523   3 0.0000   3.873506  19.472640  0.585490
524   3 0.0000   1.951016  16.540247  5.933848
525   3 0.0000   0.028526  13.607854 11.282205
526   3 0.0000  -1.893965  10.675461 16.630563
527   3 0.0000  -3.816455   7.743068 21.978921
528   3 0.0000  -5.738945   4.810676 27.327279
529   3 0.0000  17.919754   1.878283  0.585490
530   3 0.0000  15.997263  -1.054110  5.933848
531   3 0.0000  14.074773  -3.986503 11.282205
532   3 0.0000  12.152283  -6.918896 16.630563
533   3 0.0000  10.229792  -9.851289 21.978921
534   3 0.0000   8.307302 -12.783682 27.327279
535   3 0.0000  15.369437   7.743068  0.585490
536   3 0.0000  13.446947   4.810676  5.933848
537   3 0.0000  11.524456   1.878283 11.282205
538   3 0.0000   9.601966  -1.054110 16.630563
539   3 0.0000   7.679476  -3.986503 21.978921
540   3 0.0000   5.756985  -6.918896 27.327279
541   3 0.0000  12.819120  13.607854  0.585490
542   3 0.0000  10.896630  10.675461  5.933848
543   3 0.0000   8.974140   7.743068 11.282205
544   3 0.0000   7.051649   4.810676 16.630563
545   3 0.0000   5.129159   1.878283 21.978921
546   3 0.0000   3.206669  -1.054110 27.327279
547   3 0.0000  10.268804  19.472640  0.585490
548   3 0.0000   8.346313  16.540247  5.933848
549   3 0.0000   6.423823  13.607854 11.282205
550   3 0.0000   4.501333  10.675461 16.630563
551   3 0.0000   2.578842   7.743068 21.978921
552   3 0.0000   0.656352   4.810676 27.327279
553   3 0.0000  24.315051   1.878283  0.585490
554   3 0.0000  22.392561  -1.054110  5.933848
555   3 0.0000  20.470070  -3.986503 11.282205
556   3 0.0000  18.547580  -6.918896 16.630563
557   3 0.0000  16.625090  -9.851289 21.978921
558   3 0.0000  14.702599 -12.783682 27.327279
559   3 0.0000  21.764734   7.743068  0.585490
560   3 0.0000  19.842244   4.810676  5.933848
561   3 0.0000  17.919754   1.878283 11.282205
562   3 0.0000  15.997263  -1.054110 16.630563
563   3 0.0000  14.074773  -3.986503 21.978921
564   3 0.0000  12.152283  -6.918896 27.327279
565   3 0.0000  19.214418  13.607854  0.585490
566   3 0.0000  17.291927  10.675461  5.933848
567   3 0.0000  15.369437   7.743068 11.282205
568   3 0.0000  13.446947   4.810676 16.630563
569   3 0.0000  11.524456   1.878283 21.978921
570   3 0.0000   9.601966  -1.054110 27.327279
571   3 0.0000  16.664101  19.472640  0.585490
572   3 0.0000  14.741611  16.540247  5.933848
573   3 0.0000  12.819120  13.607854 11.282205
574   3 0.0000  10.896630  10.675461 16.630563
575   3 0.0000   8.974140   7.743068 21.978921
576   3 0.0000   7.051649   4.810676 27.327279
577   3 0.0000   0.952225   2.520307  3.259669
578   3 0.0000  -0.970265  -0.412086  8.608027
579   3 0.0000  -2.892756  -3.344479 13.956384
580   3 0.0000  -4.815246  -6.276872 19.304742
581   3 0.0000  -6.737736  -9.209265 24.653100
582   3 0.0000  -8.660226 -12.141658 30.001457
583   3 0.0000  -1.598092   8.385092  3.259669
584   3 0.0000  -3.520582   5.452700  8.608027
585   3 0.0000  -5.443072   2.520307 13.956384
586   3 0.0000  -7.365562  -0.412086 19.304742
587   3 0.0000  -9.288053  -3.344479 24.653100
588   3 0.0000 -11.210543  -6.276872 30.001457
589   3 0.0000  -4.148408  14.249878  3.259669
590   3 0.0000  -6.070899  11.317485  8.608027
591   3 0.0000  -7.993389   8.385092 13.956384
592   3 0.0000  -9.915879   5.452700 19.304742
593   3 0.0000 -11.838369   2.520307 24.653100
594   3 0.0000 -13.760860  -0.412086 30.001457
595   3 0.0000  -6.698725  20.114664  3.259669
596   3 0.0000  -8.621215  17.182271  8.608027
597   3 0.0000 -10.543705  14.249878 13.956384
598   3 0.0000 -12.466196  11.317485 19.304742
599   3 0.0000 -14.388686   8.385092 24.653100
600   3 0.0000 -16.311176   5.452700 30.001457
601   3 0.0000   7.347522   2.520307  3.259669
602   3 0.0000   5.425032  -0.412086  8.608027
603   3 0.0000   3.502542  -3.344479 13.956384
604   3 0.0000   1.580051  -6.276872 19.304742
605   3 0.0000  -0.342439  -9.209265 24.653100
606   3 0.0000  -2.264929 -12.141658 30.001457
607   3 0.0000   4.797206   8.385092  3.259669
608   3 0.0000   2.874715   5.452700  8.608027
609   3 0.0000   0.952225   2.520307 13.956384
610   3 0.0000  -0.970265  -0.412086 19.304742
611   3 0.0000  -2.892756  -3.344479 24.653100
612   3 0.0000  -4.815246  -6.276872 30.001457
613   3 0.0000   2.246889  14.249878  3.259669
614   3 0.0000   0.324399  11.317485  8.608027
615   3 0.0000  -1.598092   8.385092 13.956384
616   3 0.0000  -3.520582   5.452700 19.304742
617   3 0.0000  -5.443072   2.520307 24.653100
618   3 0.0000  -7.365562  -0.412086 30.001457
619   3 0.0000  -0.303428  20.114664  3.259669
620   3 0.0000  -2.225918  17.182271  8.608027
621   3 0.0000  -4.148408  14.249878 13.956384
622   3 0.0000  -6.070899  11.317485 19.304742
623   3 0.0000  -7.993389   8.385092 24.653100
624   3 0.0000  -9.915879   5.452700 30.001457
625   3 0.0000  13.742820   2.520307  3.259669
626   3 0.0000  11.820329  -0.412086  8.608027
627   3 0.0000   9.897839  -3.344479 13.956384
628   3 0.0000   7.975349  -6.276872 19.304742
629   3 0.0000   6.052858  -9.209265 24.653100
630   3 0.0000   4.130368 -12.141658 30.001457
631   3 0.0000  11.192503   8.385092  3.259669
632   3 0.0000   9.270013   5.452700  8.608027