Generated by pymatgen.io.lammps.data.LammpsData

256  atoms

  4  atom types

0.000000 12.790595  xlo xhi
0.000000 11.729572  ylo yhi
0.000000 21.393431  zlo zhi
-5.100633 -7.689961 -11.729572  xy xz yz

Masses

1  39.098300
2  30.973762
3   1.007940
4  15.999400

Atoms

1    1 0.0000   3.197649   0.000000  2.674179
2    1 0.0000   1.275158  -2.932393  8.022537
3    1 0.0000  -0.647332  -5.864786 13.370894
4    1 0.0000  -2.569822  -8.797179 18.719252
5    1 0.0000   0.647332   5.864786  2.674179
6    1 0.0000  -1.275158   2.932393  8.022537
7    1 0.0000  -3.197649   0.000000 13.370894
8    1 0.0000  -5.120139  -2.932393 18.719252
9    1 0.0000   9.592946   0.000000  2.674179
10   1 0.0000   7.670456  -2.932393  8.022537
11   1 0.0000   5.747965  -5.864786 13.370894
12   1 0.0000   3.825475  -8.797179 18.719252
13   1 0.0000   7.042629   5.864786  2.674179
14   1 0.0000   5.120139   2.932393  8.022537
15   1 0.0000   3.197649   0.000000 13.370894
16   1 0.0000   1.275158  -2.932393 18.719252
17   1 0.0000   1.922490   2.932393  0.000000
18   1 0.0000   0.000000   0.000000  5.348358
19   1 0.0000  -1.922490  -2.932393 10.696715
20   1 0.0000  -3.844981  -5.864786 16.045073
21   1 0.0000  -0.627826   8.797179  0.000000
22   1 0.0000  -2.550317   5.864786  5.348358
23   1 0.0000  -4.472807   2.932393 10.696715
24   1 0.0000  -6.395297   0.000000 16.045073
25   1 0.0000   8.317788   2.932393  0.000000
26   1 0.0000   6.395297   0.000000  5.348358
27   1 0.0000   4.472807  -2.932393 10.696715
28   1 0.0000   2.550317  -5.864786 16.045073
29   1 0.0000   5.767471   8.797179  0.000000
30   1 0.0000   3.844981   5.864786  5.348358
31   1 0.0000   1.922490   2.932393 10.696715
32   1 0.0000   0.000000   0.000000 16.045073
33   2 0.0000  -1.275158   2.932393  2.674179
34   2 0.0000  -3.197649   0.000000  8.022537
35   2 0.0000  -5.120139  -2.932393 13.370894
36   2 0.0000  -7.042629  -5.864786 18.719252
37   2 0.0000  -3.825475   8.797179  2.674179
38   2 0.0000  -5.747965   5.864786  8.022537
39   2 0.0000  -7.670456   2.932393 13.370894
40   2 0.0000  -9.592946   0.000000 18.719252
41   2 0.0000   5.120139   2.932393  2.674179
42   2 0.0000   3.197649   0.000000  8.022537
43   2 0.0000   1.275158  -2.932393 13.370894
44   2 0.0000  -0.647332  -5.864786 18.719252
45   2 0.0000   2.569822   8.797179  2.674179
46   2 0.0000   0.647332   5.864786  8.022537
47   2 0.0000  -1.275158   2.932393 13.370894
48   2 0.0000  -3.197649   0.000000 18.719252
49   2 0.0000   0.000000   0.000000  0.000000
50   2 0.0000  -1.922490  -2.932393  5.348358
51   2 0.0000  -3.844981  -5.864786 10.696715
52   2 0.0000  -5.767471  -8.797179 16.045073
53   2 0.0000  -2.550317   5.864786  0.000000
54   2 0.0000  -4.472807   2.932393  5.348358
55   2 0.0000  -6.395297   0.000000 10.696715
56   2 0.0000  -8.317788  -2.932393 16.045073
57   2 0.0000   6.395297  -0.000000 -0.000000
58   2 0.0000   4.472807  -2.932393  5.348358
59   2 0.0000   2.550317  -5.864786 10.696715
60   2 0.0000   0.627826  -8.797179 16.045073
61   2 0.0000   3.844981   5.864786  0.000000
62   2 0.0000   1.922490   2.932393  5.348358
63   2 0.0000   0.000000   0.000000 10.696715
64   2 0.0000  -1.922490  -2.932393 16.045073
65   3 0.0000  -2.245424   2.520307  4.762868
66   3 0.0000  -4.167914  -0.412086 10.111225
67   3 0.0000  -6.090404  -3.344479 15.459583
68   3 0.0000  -8.012894  -6.276872 20.807941
69   3 0.0000  -4.795740   8.385092  4.762868
70   3 0.0000  -6.718231   5.452700 10.111225
71   3 0.0000  -8.640721   2.520307 15.459583
72   3 0.0000 -10.563211  -0.412086 20.807941
73   3 0.0000   4.149874   2.520307  4.762868
74   3 0.0000   2.227383  -0.412086 10.111225
75   3 0.0000   0.304893  -3.344479 15.459583
76   3 0.0000  -1.617597  -6.276872 20.807941
77   3 0.0000   1.599557   8.385092  4.762868
78   3 0.0000  -0.322933   5.452700 10.111225
79   3 0.0000  -2.245424   2.520307 15.459583
80   3 0.0000  -4.167914  -0.412086 20.807941
81   3 0.0000   5.129159   1.878283  0.585490
82   3 0.0000   3.206669  -1.054110  5.933848
83   3 0.0000   1.284178  -3.986503 11.282205
84   3 0.0000  -0.638312  -6.918896 16.630563
85   3 0.0000   2.578842   7.743068  0.585490
86   3 0.0000   0.656352   4.810676  5.933848
87   3 0.0000  -1.266138   1.878283 11.282205
88   3 0.0000  -3.188629  -1.054110 16.630563
89   3 0.0000  11.524456   1.878283  0.585490
90   3 0.0000   9.601966  -1.054110  5.933848
91   3 0.0000   7.679476  -3.986503 11.282205
92   3 0.0000   5.756985  -6.918896 16.630563
93   3 0.0000   8.974140   7.743068  0.585490
94   3 0.0000   7.051649   4.810676  5.933848
95   3 0.0000   5.129159   1.878283 11.282205
96   3 0.0000   3.206669  -1.054110 16.630563
97   3 0.0000   0.952225   2.520307  3.259669
98   3 0.0000  -0.970265  -0.412086  8.608027
99   3 0.0000  -2.892756  -3.344479 13.956384
100  3 0.0000  -4.815246  -6.276872 19.304742
101  3 0.0000  -1.598092   8.385092  3.259669
102  3 0.0000  -3.520582   5.452700  8.608027
103  3 0.0000  -5.443072   2.520307 13.956384
104  3 0.0000  -7.365562  -0.412086 19.304742
105  3 0.0000   7.347522   2.520307  3.259669
106  3 0.0000   5.425032  -0.412086  8.608027
107  3 0.0000   3.502542  -3.344479 13.956384
108  3 0.0000   1.580051  -6.276872 19.304742
109  3 0.0000   4.797206   8.385092  3.259669
110  3 0.0000   2.874715   5.452700  8.608027
111  3 0.0000   0.952225   2.520307 13.956384
112  3 0.0000  -0.970265  -0.412086 19.304742
113  3 0.0000   0.009020  -1.054110  2.088689
114  3 0.0000  -1.913470  -3.986503  7.437046
115  3 0.0000  -3.835961  -6.918896 12.785404
116  3 0.0000  -5.758451  -9.851289 18.133762
117  3 0.0000  -2.541297   4.810676  2.088689
118  3 0.0000  -4.463787   1.878283  7.437046
119  3 0.0000  -6.386277  -1.054110 12.785404
120  3 0.0000  -8.308768  -3.986503 18.133762
121  3 0.0000   6.404317  -1.054110  2.088689
122  3 0.0000   4.481827  -3.986503  7.437046
123  3 0.0000   2.559337  -6.918896 12.785404
124  3 0.0000   0.636846  -9.851289 18.133762
125  3 0.0000   3.854001   4.810676  2.088689
126  3 0.0000   1.931510   1.878283  7.437046
127  3 0.0000   0.009020  -1.054110 12.785404
128  3 0.0000  -1.913470  -3.986503 18.133762
129  4 0.0000  -1.526918   2.033444  3.920731
130  4 0.0000  -3.449408  -0.898948  9.269089
131  4 0.0000  -5.371899  -3.831341 14.617447
132  4 0.0000  -7.294389  -6.763734 19.965804
133  4 0.0000  -4.077235   7.898230  3.920731
134  4 0.0000  -5.999725   4.965837  9.269089
135  4 0.0000  -7.922215   2.033444 14.617447
136  4 0.0000  -9.844706  -0.898948 19.965804
137  4 0.0000   4.868379   2.033444  3.920731
138  4 0.0000   2.945889  -0.898948  9.269089
139  4 0.0000   1.023398  -3.831341 14.617447
140  4 0.0000  -0.899092  -6.763734 19.965804
141  4 0.0000   2.318062   7.898230  3.920731
142  4 0.0000   0.395572   4.965837  9.269089
143  4 0.0000  -1.526918   2.033444 14.617447
144  4 0.0000  -3.449408  -0.898948 19.965804
145  4 0.0000   1.530356   0.060695  0.282329
146  4 0.0000  -0.392134  -2.871698  5.630687
147  4 0.0000  -2.314624  -5.804091 10.979045
148  4 0.0000  -4.237115  -8.736484 16.327402
149  4 0.0000  -1.019960   5.925480  0.282329
150  4 0.0000  -2.942451   2.993088  5.630687
151  4 0.0000  -4.864941   0.060695 10.979045
152  4 0.0000  -6.787431  -2.871698 16.327402
153  4 0.0000   7.925654   0.060695  0.282329
154  4 0.0000   6.003163  -2.871698  5.630687
155  4 0.0000   4.080673  -5.804091 10.979045
156  4 0.0000   2.158183  -8.736484 16.327402
157  4 0.0000   5.375337   5.925480  0.282329
158  4 0.0000   3.452847   2.993088  5.630687
159  4 0.0000   1.530356   0.060695 10.979045
160  4 0.0000  -0.392134  -2.871698 16.327402
161  4 0.0000   4.396158   2.343035  1.427626
162  4 0.0000   2.473668  -0.589358  6.775984
163  4 0.0000   0.551177  -3.521751 12.124342
164  4 0.0000  -1.371313  -6.454144 17.472700
165  4 0.0000   1.845841   8.207820  1.427626
166  4 0.0000  -0.076649   5.275428  6.775984
167  4 0.0000  -1.999139   2.343035 12.124342
168  4 0.0000  -3.921630  -0.589358 17.472700
169  4 0.0000  10.791455   2.343035  1.427626
170  4 0.0000   8.868965  -0.589358  6.775984
171  4 0.0000   6.946475  -3.521751 12.124342
172  4 0.0000   5.023984  -6.454144 17.472700
173  4 0.0000   8.241139   8.207820  1.427626
174  4 0.0000   6.318648   5.275428  6.775984
175  4 0.0000   4.396158   2.343035 12.124342
176  4 0.0000   2.473668  -0.589358 17.472700
177  4 0.0000   3.918191  -1.504781  5.066029
178  4 0.0000   1.995701  -4.437174 10.414386
179  4 0.0000   0.073211  -7.369567 15.762744
180  4 0.0000  -1.849280 -10.301960 21.111102
181  4 0.0000   1.367875   4.360005  5.066029
182  4 0.0000  -0.554616   1.427612 10.414386
183  4 0.0000  -2.477106  -1.504781 15.762744
184  4 0.0000  -4.399596  -4.437174 21.111102
185  4 0.0000  10.313489  -1.504781  5.066029
186  4 0.0000   8.390998  -4.437174 10.414386
187  4 0.0000   6.468508  -7.369567 15.762744
188  4 0.0000   4.546018 -10.301960 21.111102
189  4 0.0000   7.763172   4.360005  5.066029
190  4 0.0000   5.840682   1.427612 10.414386
191  4 0.0000   3.918191  -1.504781 15.762744
192  4 0.0000   1.995701  -4.437174 21.111102
193  4 0.0000   0.255198   2.993088  2.391850
194  4 0.0000  -1.667292   0.060695  7.740207
195  4 0.0000  -3.589783  -2.871698 13.088565
196  4 0.0000  -5.512273  -5.804091 18.436923
197  4 0.0000  -2.295119   8.857873  2.391850
198  4 0.0000  -4.217609   5.925480  7.740207
199  4 0.0000  -6.140099   2.993088 13.088565
200  4 0.0000  -8.062589   0.060695 18.436923
201  4 0.0000   6.650495   2.993088  2.391850
202  4 0.0000   4.728005   0.060695  7.740207
203  4 0.0000   2.805515  -2.871698 13.088565
204  4 0.0000   0.883024  -5.804091 18.436923
205  4 0.0000   4.100179   8.857873  2.391850
206  4 0.0000   2.177688   5.925480  7.740207
207  4 0.0000   0.255198   2.993088 13.088565
208  4 0.0000  -1.667292   0.060695 18.436923
209  4 0.0000   5.671316  -0.589358  1.246552
210  4 0.0000   3.748826  -3.521751  6.594910
211  4 0.0000   1.826336  -6.454144 11.943268
212  4 0.0000  -0.096155  -9.386537 17.291626
213  4 0.0000   3.121000   5.275428  1.246552
214  4 0.0000   1.198509   2.343035  6.594910
215  4 0.0000  -0.723981  -0.589358 11.943268
216  4 0.0000  -2.646471  -3.521751 17.291626
217  4 0.0000  12.066614  -0.589358  1.246552
218  4 0.0000  10.144123  -3.521751  6.594910
219  4 0.0000   8.221633  -6.454144 11.943268
220  4 0.0000   6.299143  -9.386537 17.291626
221  4 0.0000   9.516297   5.275428  1.246552
222  4 0.0000   7.593807   2.343035  6.594910
223  4 0.0000   5.671316  -0.589358 11.943268
224  4 0.0000   3.748826  -3.521751 17.291626
225  4 0.0000   0.720543  -1.504781  2.956508
226  4 0.0000  -1.201948  -4.437174  8.304866
227  4 0.0000  -3.124438  -7.369567 13.653223
228  4 0.0000  -5.046928 -10.301960 19.001581
229  4 0.0000  -1.829774   4.360005  2.956508
230  4 0.0000  -3.752264   1.427612  8.304866
231  4 0.0000  -5.674755  -1.504781 13.653223
232  4 0.0000  -7.597245  -4.437174 19.001581
233  4 0.0000   7.115840  -1.504781  2.956508
234  4 0.0000   5.193350  -4.437174  8.304866
235  4 0.0000   3.270859  -7.369567 13.653223
236  4 0.0000   1.348369 -10.301960 19.001581
237  4 0.0000   4.565523   4.360005  2.956508
238  4 0.0000   2.643033   1.427612  8.304866
239  4 0.0000   0.720543  -1.504781 13.653223
240  4 0.0000  -1.201948  -4.437174 19.001581
241  4 0.0000   1.670730   2.033444  4.101805
242  4 0.0000  -0.251760  -0.898948  9.450163
243  4 0.0000  -2.174250  -3.831341 14.798521
244  4 0.0000  -4.096740  -6.763734 20.146878
245  4 0.0000  -0.879586   7.898230  4.101805
246  4 0.0000  -2.802076   4.965837  9.450163
247  4 0.0000  -4.724567   2.033444 14.798521
248  4 0.0000  -6.647057  -0.898948 20.146878
249  4 0.0000   8.066028   2.033444  4.101805
250  4 0.0000   6.143537  -0.898948  9.450163
251  4 0.0000   4.221047  -3.831341 14.798521
252  4 0.0000   2.298557  -6.763734 20.146878
253  4 0.0000   5.515711   7.898230  4.101805
254  4 0.0000   3.593221   4.965837  9.450163
255  4 0.0000   1.670730   2.033444 14.798521
256  4 0.0000  -0.251760  -0.898948 20.146878

