Generated by pymatgen.io.lammps.data.LammpsData

192  atoms

  2  atom types

0.000000 12.132170  xlo xhi
0.000000 10.506768  ylo yhi
0.000000 14.858814  zlo zhi
6.066085 9.099128 5.253384  xy xz yz

Masses

1  47.8670
2  15.9994

Atoms

1    1 0.0000  0.000000  0.000000  0.000000
2    1 0.0000  1.516521  0.875564  2.476469
3    1 0.0000  3.033043  1.751128  4.952938
4    1 0.0000  4.549564  2.626692  7.429407
5    1 0.0000  6.066085  3.502256  9.905876
6    1 0.0000  7.582607  4.377820 12.382345
7    1 0.0000  1.516521  2.626692  0.000000
8    1 0.0000  3.033043  3.502256  2.476469
9    1 0.0000  4.549564  4.377820  4.952938
10   1 0.0000  6.066085  5.253384  7.429407
11   1 0.0000  7.582607  6.128948  9.905876
12   1 0.0000  9.099128  7.004512 12.382345
13   1 0.0000  3.033043  5.253384  0.000000
14   1 0.0000  4.549564  6.128948  2.476469
15   1 0.0000  6.066085  7.004512  4.952938
16   1 0.0000  7.582607  7.880076  7.429407
17   1 0.0000  9.099128  8.755640  9.905876
18   1 0.0000 10.615649  9.631204 12.382345
19   1 0.0000  4.549564  7.880076  0.000000
20   1 0.0000  6.066085  8.755640  2.476469
21   1 0.0000  7.582607  9.631204  4.952938
22   1 0.0000  9.099128 10.506768  7.429407
23   1 0.0000 10.615649 11.382332  9.905876
24   1 0.0000 12.132170 12.257896 12.382345
25   1 0.0000  3.033043  0.000000  0.000000
26   1 0.0000  4.549564  0.875564  2.476469
27   1 0.0000  6.066085  1.751128  4.952938
28   1 0.0000  7.582607  2.626692  7.429407
29   1 0.0000  9.099128  3.502256  9.905876
30   1 0.0000 10.615649  4.377820 12.382345
31   1 0.0000  4.549564  2.626692  0.000000
32   1 0.0000  6.066085  3.502256  2.476469
33   1 0.0000  7.582607  4.377820  4.952938
34   1 0.0000  9.099128  5.253384  7.429407
35   1 0.0000 10.615649  6.128948  9.905876
36   1 0.0000 12.132170  7.004512 12.382345
37   1 0.0000  6.066085  5.253384  0.000000
38   1 0.0000  7.582607  6.128948  2.476469
39   1 0.0000  9.099128  7.004512  4.952938
40   1 0.0000 10.615649  7.880076  7.429407
41   1 0.0000 12.132170  8.755640  9.905876
42   1 0.0000 13.648692  9.631204 12.382345
43   1 0.0000  7.582607  7.880076  0.000000
44   1 0.0000  9.099128  8.755640  2.476469
45   1 0.0000 10.615649  9.631204  4.952938
46   1 0.0000 12.132170 10.506768  7.429407
47   1 0.0000 13.648692 11.382332  9.905876
48   1 0.0000 15.165213 12.257896 12.382345
49   1 0.0000  6.066085  0.000000  0.000000
50   1 0.0000  7.582607  0.875564  2.476469
51   1 0.0000  9.099128  1.751128  4.952938
52   1 0.0000 10.615649  2.626692  7.429407
53   1 0.0000 12.132170  3.502256  9.905876
54   1 0.0000 13.648692  4.377820 12.382345
55   1 0.0000  7.582607  2.626692 -0.000000
56   1 0.0000  9.099128  3.502256  2.476469
57   1 0.0000 10.615649  4.377820  4.952938
58   1 0.0000 12.132170  5.253384  7.429407
59   1 0.0000 13.648692  6.128948  9.905876
60   1 0.0000 15.165213  7.004512 12.382345
61   1 0.0000  9.099128  5.253384  0.000000
62   1 0.0000 10.615649  6.128948  2.476469
63   1 0.0000 12.132170  7.004512  4.952938
64   1 0.0000 13.648692  7.880076  7.429407
65   1 0.0000 15.165213  8.755640  9.905876
66   1 0.0000 16.681734  9.631204 12.382345
67   1 0.0000 10.615649  7.880076  0.000000
68   1 0.0000 12.132170  8.755640  2.476469
69   1 0.0000 13.648692  9.631204  4.952938
70   1 0.0000 15.165213 10.506768  7.429407
71   1 0.0000 16.681734 11.382332  9.905876
72   1 0.0000 18.198256 12.257896 12.382345
73   1 0.0000  9.099128  0.000000  0.000000
74   1 0.0000 10.615649  0.875564  2.476469
75   1 0.0000 12.132170  1.751128  4.952938
76   1 0.0000 13.648692  2.626692  7.429407
77   1 0.0000 15.165213  3.502256  9.905876
78   1 0.0000 16.681734  4.377820 12.382345
79   1 0.0000 10.615649  2.626692  0.000000
80   1 0.0000 12.132170  3.502256  2.476469
81   1 0.0000 13.648692  4.377820  4.952938
82   1 0.0000 15.165213  5.253384  7.429407
83   1 0.0000 16.681734  6.128948  9.905876
84   1 0.0000 18.198256  7.004512 12.382345
85   1 0.0000 12.132170  5.253384  0.000000
86   1 0.0000 13.648692  6.128948  2.476469
87   1 0.0000 15.165213  7.004512  4.952938
88   1 0.0000 16.681734  7.880076  7.429407
89   1 0.0000 18.198256  8.755640  9.905876
90   1 0.0000 19.714777  9.631204 12.382345
91   1 0.0000 13.648692  7.880076  0.000000
92   1 0.0000 15.165213  8.755640  2.476469
93   1 0.0000 16.681734  9.631204  4.952938
94   1 0.0000 18.198256 10.506768  7.429407
95   1 0.0000 19.714777 11.382332  9.905876
96   1 0.0000 21.231298 12.257896 12.382345
97   2 0.0000  3.033043  1.751128  1.238234
98   2 0.0000  4.549564  2.626692  3.714703
99   2 0.0000  6.066085  3.502256  6.191172
100  2 0.0000  7.582607  4.377820  8.667641
101  2 0.0000  9.099128  5.253384 11.144110
102  2 0.0000 10.615649  6.128948 13.620579
103  2 0.0000  4.549564  4.377820  1.238234
104  2 0.0000  6.066085  5.253384  3.714703
105  2 0.0000  7.582607  6.128948  6.191172
106  2 0.0000  9.099128  7.004512  8.667641
107  2 0.0000 10.615649  7.880076 11.144110
108  2 0.0000 12.132170  8.755640 13.620579
109  2 0.0000  6.066085  7.004512  1.238234
110  2 0.0000  7.582607  7.880076  3.714703
111  2 0.0000  9.099128  8.755640  6.191172
112  2 0.0000 10.615649  9.631204  8.667641
113  2 0.0000 12.132170 10.506768 11.144110
114  2 0.0000 13.648692 11.382332 13.620579
115  2 0.0000  7.582607  9.631204  1.238234
116  2 0.0000  9.099128 10.506768  3.714703
117  2 0.0000 10.615649 11.382332  6.191172
118  2 0.0000 12.132170 12.257896  8.667641
119  2 0.0000 13.648692 13.133460 11.144110
120  2 0.0000 15.165213 14.009024 13.620579
121  2 0.0000  6.066085  1.751128  1.238234
122  2 0.0000  7.582607  2.626692  3.714703
123  2 0.0000  9.099128  3.502256  6.191172
124  2 0.0000 10.615649  4.377820  8.667641
125  2 0.0000 12.132170  5.253384 11.144110
126  2 0.0000 13.648692  6.128948 13.620579
127  2 0.0000  7.582607  4.377820  1.238234
128  2 0.0000  9.099128  5.253384  3.714703
129  2 0.0000 10.615649  6.128948  6.191172
130  2 0.0000 12.132170  7.004512  8.667641
131  2 0.0000 13.648692  7.880076 11.144110
132  2 0.0000 15.165213  8.755640 13.620579
133  2 0.0000  9.099128  7.004512  1.238234
134  2 0.0000 10.615649  7.880076  3.714703
135  2 0.0000 12.132170  8.755640  6.191172
136  2 0.0000 13.648692  9.631204  8.667641
137  2 0.0000 15.165213 10.506768 11.144110
138  2 0.0000 16.681734 11.382332 13.620579
139  2 0.0000 10.615649  9.631204  1.238234
140  2 0.0000 12.132170 10.506768  3.714703
141  2 0.0000 13.648692 11.382332  6.191172
142  2 0.0000 15.165213 12.257896  8.667641
143  2 0.0000 16.681734 13.133460 11.144110
144  2 0.0000 18.198256 14.009024 13.620579
145  2 0.0000  9.099128  1.751128  1.238234
146  2 0.0000 10.615649  2.626692  3.714703
147  2 0.0000 12.132170  3.502256  6.191172
148  2 0.0000 13.648692  4.377820  8.667641
149  2 0.0000 15.165213  5.253384 11.144110
150  2 0.0000 16.681734  6.128948 13.620579
151  2 0.0000 10.615649  4.377820  1.238234
152  2 0.0000 12.132170  5.253384  3.714703
153  2 0.0000 13.648692  6.128948  6.191172
154  2 0.0000 15.165213  7.004512  8.667641
155  2 0.0000 16.681734  7.880076 11.144110
156  2 0.0000 18.198256  8.755640 13.620579
157  2 0.0000 12.132170  7.004512  1.238234
158  2 0.0000 13.648692  7.880076  3.714703
159  2 0.0000 15.165213  8.755640  6.191172
160  2 0.0000 16.681734  9.631204  8.667641
161  2 0.0000 18.198256 10.506768 11.144110
162  2 0.0000 19.714777 11.382332 13.620579
163  2 0.0000 13.648692  9.631204  1.238234
164  2 0.0000 15.165213 10.506768  3.714703
165  2 0.0000 16.681734 11.382332  6.191172
166  2 0.0000 18.198256 12.257896  8.667641
167  2 0.0000 19.714777 13.133460 11.144110
168  2 0.0000 21.231298 14.009024 13.620579
169  2 0.0000 12.132170  1.751128  1.238234
170  2 0.0000 13.648692  2.626692  3.714703
171  2 0.0000 15.165213  3.502256  6.191172
172  2 0.0000 16.681734  4.377820  8.667641
173  2 0.0000 18.198256  5.253384 11.144110
174  2 0.0000 19.714777  6.128948 13.620579
175  2 0.0000 13.648692  4.377820  1.238234
176  2 0.0000 15.165213  5.253384  3.714703
177  2 0.0000 16.681734  6.128948  6.191172
178  2 0.0000 18.198256  7.004512  8.667641
179  2 0.0000 19.714777  7.880076 11.144110
180  2 0.0000 21.231298  8.755640 13.620579
181  2 0.0000 15.165213  7.004512  1.238234
182  2 0.0000 16.681734  7.880076  3.714703
183  2 0.0000 18.198256  8.755640  6.191172
184  2 0.0000 19.714777  9.631204  8.667641
185  2 0.0000 21.231298 10.506768 11.144110
186  2 0.0000 22.747820 11.382332 13.620579
187  2 0.0000 16.681734  9.631204  1.238234
188  2 0.0000 18.198256 10.506768  3.714703
189  2 0.0000 19.714777 11.382332  6.191172
190  2 0.0000 21.231298 12.257896  8.667641
191  2 0.0000 22.747820 13.133460 11.144110
192  2 0.0000 24.264341 14.009024 13.620579

