Generated by pymatgen.io.lammps.data.LammpsData

32  atoms

 2  atom types

0.000000 6.066085  xlo xhi
0.000000 5.253384  ylo yhi
0.000000 9.905876  zlo zhi
3.033043 6.066085 3.502256  xy xz yz

Masses

1  47.8670
2  15.9994

Atoms

1   1 0.0000  0.000000  0.000000 0.000000
2   1 0.0000  1.516521  0.875564 2.476469
3   1 0.0000  3.033043  1.751128 4.952938
4   1 0.0000  4.549564  2.626692 7.429407
5   1 0.0000  1.516521  2.626692 0.000000
6   1 0.0000  3.033043  3.502256 2.476469
7   1 0.0000  4.549564  4.377820 4.952938
8   1 0.0000  6.066085  5.253384 7.429407
9   1 0.0000  3.033043 -0.000000 0.000000
10  1 0.0000  4.549564  0.875564 2.476469
11  1 0.0000  6.066085  1.751128 4.952938
12  1 0.0000  7.582607  2.626692 7.429407
13  1 0.0000  4.549564  2.626692 0.000000
14  1 0.0000  6.066085  3.502256 2.476469
15  1 0.0000  7.582607  4.377820 4.952938
16  1 0.0000  9.099128  5.253384 7.429407
17  2 0.0000  3.033043  1.751128 1.238234
18  2 0.0000  4.549564  2.626692 3.714703
19  2 0.0000  6.066085  3.502256 6.191172
20  2 0.0000  7.582607  4.377820 8.667641
21  2 0.0000  4.549564  4.377820 1.238234
22  2 0.0000  6.066085  5.253384 3.714703
23  2 0.0000  7.582607  6.128948 6.191172
24  2 0.0000  9.099128  7.004512 8.667641
25  2 0.0000  6.066085  1.751128 1.238234
26  2 0.0000  7.582607  2.626692 3.714703
27  2 0.0000  9.099128  3.502256 6.191172
28  2 0.0000 10.615649  4.377820 8.667641
29  2 0.0000  7.582607  4.377820 1.238234
30  2 0.0000  9.099128  5.253384 3.714703
31  2 0.0000 10.615649  6.128948 6.191172
32  2 0.0000 12.132170  7.004512 8.667641

