Generated by pymatgen.io.lammps.data.LammpsData

288  atoms

  4  atom types

0.000000 10.166357  xlo xhi
0.000000 8.804323  ylo yhi
0.000000 38.998220  zlo zhi
-5.083180 0.000000 0.000000  xy xz yz

Masses

1   6.941000
2  40.078000
3  26.981539
4  18.998403

Atoms

1    1 0.0000 -0.000000 2.934774  2.437389
2    1 0.0000 -0.000000 2.934774 12.186944
3    1 0.0000 -0.000000 2.934774 21.936499
4    1 0.0000 -0.000000 2.934774 31.686054
5    1 0.0000 -2.541590 7.336936  2.437389
6    1 0.0000 -2.541590 7.336936 12.186944
7    1 0.0000 -2.541590 7.336936 21.936499
8    1 0.0000 -2.541590 7.336936 31.686054
9    1 0.0000  5.083178 2.934774  2.437389
10   1 0.0000  5.083178 2.934774 12.186944
11   1 0.0000  5.083178 2.934774 21.936499
12   1 0.0000  5.083178 2.934774 31.686054
13   1 0.0000  2.541588 7.336936  2.437389
14   1 0.0000  2.541588 7.336936 12.186944
15   1 0.0000  2.541588 7.336936 21.936499
16   1 0.0000  2.541588 7.336936 31.686054
17   1 0.0000  2.541589 1.467387  7.312166
18   1 0.0000  2.541589 1.467387 17.061721
19   1 0.0000  2.541589 1.467387 26.811276
20   1 0.0000  2.541589 1.467387 36.560831
21   1 0.0000 -0.000001 5.869549  7.312166
22   1 0.0000 -0.000001 5.869549 17.061721
23   1 0.0000 -0.000001 5.869549 26.811276
24   1 0.0000 -0.000001 5.869549 36.560831
25   1 0.0000  7.624768 1.467387  7.312166
26   1 0.0000  7.624768 1.467387 17.061721
27   1 0.0000  7.624768 1.467387 26.811276
28   1 0.0000  7.624768 1.467387 36.560831
29   1 0.0000  5.083178 5.869549  7.312166
30   1 0.0000  5.083178 5.869549 17.061721
31   1 0.0000  5.083178 5.869549 26.811276
32   1 0.0000  5.083178 5.869549 36.560831
33   2 0.0000  0.000000 0.000000  0.000000
34   2 0.0000  0.000000 0.000000  9.749555
35   2 0.0000  0.000000 0.000000 19.499110
36   2 0.0000  0.000000 0.000000 29.248665
37   2 0.0000 -2.541590 4.402161  0.000000
38   2 0.0000 -2.541590 4.402161  9.749555
39   2 0.0000 -2.541590 4.402161 19.499110
40   2 0.0000 -2.541590 4.402161 29.248665
41   2 0.0000  5.083179 0.000000  0.000000
42   2 0.0000  5.083179 0.000000  9.749555
43   2 0.0000  5.083179 0.000000 19.499110
44   2 0.0000  5.083179 0.000000 29.248665
45   2 0.0000  2.541589 4.402161  0.000000
46   2 0.0000  2.541589 4.402161  9.749555
47   2 0.0000  2.541589 4.402161 19.499110
48   2 0.0000  2.541589 4.402161 29.248665
49   2 0.0000  0.000000 0.000000  4.874778
50   2 0.0000  0.000000 0.000000 14.624333
51   2 0.0000  0.000000 0.000000 24.373888
52   2 0.0000  0.000000 0.000000 34.123443
53   2 0.0000 -2.541590 4.402161  4.874777
54   2 0.0000 -2.541590 4.402161 14.624333
55   2 0.0000 -2.541590 4.402161 24.373888
56   2 0.0000 -2.541590 4.402161 34.123443
57   2 0.0000  5.083179 0.000000  4.874777
58   2 0.0000  5.083179 0.000000 14.624333
59   2 0.0000  5.083179 0.000000 24.373888
60   2 0.0000  5.083179 0.000000 34.123443
61   2 0.0000  2.541589 4.402161  4.874778
62   2 0.0000  2.541589 4.402161 14.624333
63   2 0.0000  2.541589 4.402161 24.373888
64   2 0.0000  2.541589 4.402161 34.123443
65   3 0.0000  2.541589 1.467387  2.437389
66   3 0.0000  2.541589 1.467387 12.186944
67   3 0.0000  2.541589 1.467387 21.936499
68   3 0.0000  2.541589 1.467387 31.686054
69   3 0.0000 -0.000001 5.869549  2.437389
70   3 0.0000 -0.000001 5.869549 12.186944
71   3 0.0000 -0.000001 5.869549 21.936499
72   3 0.0000 -0.000001 5.869549 31.686054
73   3 0.0000  7.624768 1.467387  2.437389
74   3 0.0000  7.624768 1.467387 12.186944
75   3 0.0000  7.624768 1.467387 21.936499
76   3 0.0000  7.624768 1.467387 31.686054
77   3 0.0000  5.083178 5.869549  2.437389
78   3 0.0000  5.083178 5.869549 12.186944
79   3 0.0000  5.083178 5.869549 21.936499
80   3 0.0000  5.083178 5.869549 31.686054
81   3 0.0000 -0.000000 2.934774  7.312166
82   3 0.0000 -0.000000 2.934774 17.061721
83   3 0.0000 -0.000000 2.934774 26.811276
84   3 0.0000 -0.000000 2.934774 36.560831
85   3 0.0000 -2.541590 7.336936  7.312166
86   3 0.0000 -2.541590 7.336936 17.061721
87   3 0.0000 -2.541590 7.336936 26.811276
88   3 0.0000 -2.541590 7.336936 36.560831
89   3 0.0000  5.083178 2.934774  7.312166
90   3 0.0000  5.083178 2.934774 17.061721
91   3 0.0000  5.083178 2.934774 26.811276
92   3 0.0000  5.083178 2.934774 36.560831
93   3 0.0000  2.541588 7.336936  7.312166
94   3 0.0000  2.541588 7.336936 17.061721
95   3 0.0000  2.541588 7.336936 26.811276
96   3 0.0000  2.541588 7.336936 36.560831
97   4 0.0000  1.830737 0.137893  1.395444
98   4 0.0000  1.830737 0.137893 11.144999
99   4 0.0000  1.830737 0.137893 20.894554
100  4 0.0000  1.830737 0.137893 30.644109
101  4 0.0000 -0.710853 4.540055  1.395444
102  4 0.0000 -0.710853 4.540055 11.144999
103  4 0.0000 -0.710853 4.540055 20.894554
104  4 0.0000 -0.710853 4.540055 30.644109
105  4 0.0000  6.913916 0.137893  1.395444
106  4 0.0000  6.913916 0.137893 11.144999
107  4 0.0000  6.913916 0.137893 20.894554
108  4 0.0000  6.913916 0.137893 30.644109
109  4 0.0000  4.372326 4.540055  1.395444
110  4 0.0000  4.372326 4.540055 11.144999
111  4 0.0000  4.372326 4.540055 20.894554
112  4 0.0000  4.372326 4.540055 30.644109
113  4 0.0000  1.506801 2.885643  6.270222
114  4 0.0000  1.506801 2.885643 16.019777
115  4 0.0000  1.506801 2.885643 25.769332
116  4 0.0000  1.506801 2.885643 35.518887
117  4 0.0000 -1.034789 7.287805  6.270222
118  4 0.0000 -1.034789 7.287805 16.019777
119  4 0.0000 -1.034789 7.287805 25.769332
120  4 0.0000 -1.034789 7.287805 35.518887
121  4 0.0000  6.589980 2.885643  6.270222
122  4 0.0000  6.589980 2.885643 16.019777
123  4 0.0000  6.589980 2.885643 25.769332
124  4 0.0000  6.589980 2.885643 35.518887
125  4 0.0000  4.048390 7.287805  6.270222
126  4 0.0000  4.048390 7.287805 16.019777
127  4 0.0000  4.048390 7.287805 25.769332
128  4 0.0000  4.048390 7.287805 35.518887
129  4 0.0000 -0.710853 4.264268  6.270222
130  4 0.0000 -0.710853 4.264268 16.019777
131  4 0.0000 -0.710853 4.264268 25.769332
132  4 0.0000 -0.710853 4.264268 35.518887
133  4 0.0000 -3.252443 8.666430  6.270222
134  4 0.0000 -3.252443 8.666430 16.019777
135  4 0.0000 -3.252443 8.666430 25.769332
136  4 0.0000 -3.252443 8.666430 35.518887
137  4 0.0000  4.372326 4.264268  6.270222
138  4 0.0000  4.372326 4.264268 16.019777
139  4 0.0000  4.372326 4.264268 25.769332
140  4 0.0000  4.372326 4.264268 35.518887
141  4 0.0000  1.830736 8.666430  6.270222
142  4 0.0000  1.830736 8.666430 16.019777
143  4 0.0000  1.830736 8.666430 25.769332
144  4 0.0000  1.830736 8.666430 35.518887
145  4 0.0000 -0.795950 1.654412  6.270222
146  4 0.0000 -0.795950 1.654412 16.019777
147  4 0.0000 -0.795950 1.654412 25.769332
148  4 0.0000 -0.795950 1.654412 35.518887
149  4 0.0000 -3.337540 6.056573  6.270222
150  4 0.0000 -3.337540 6.056573 16.019777
151  4 0.0000 -3.337540 6.056573 25.769332
152  4 0.0000 -3.337540 6.056573 35.518887
153  4 0.0000  4.287229 1.654412  6.270222
154  4 0.0000  4.287229 1.654412 16.019777
155  4 0.0000  4.287229 1.654412 25.769332
156  4 0.0000  4.287229 1.654412 35.518887
157  4 0.0000  1.745639 6.056573  6.270222
158  4 0.0000  1.745639 6.056573 16.019777
159  4 0.0000  1.745639 6.056573 25.769332
160  4 0.0000  1.745639 6.056573 35.518887
161  4 0.0000  3.337538 2.747750  3.479333
162  4 0.0000  3.337538 2.747750 13.228888
163  4 0.0000  3.337538 2.747750 22.978443
164  4 0.0000  3.337538 2.747750 32.727998
165  4 0.0000  0.795949 7.149911  3.479333
166  4 0.0000  0.795949 7.149911 13.228888
167  4 0.0000  0.795949 7.149911 22.978443
168  4 0.0000  0.795949 7.149911 32.727998
169  4 0.0000  8.420717 2.747750  3.479333
170  4 0.0000  8.420717 2.747750 13.228888
171  4 0.0000  8.420717 2.747750 22.978443
172  4 0.0000  8.420717 2.747750 32.727998
173  4 0.0000  5.879127 7.149911  3.479333
174  4 0.0000  5.879127 7.149911 13.228888
175  4 0.0000  5.879127 7.149911 22.978443
176  4 0.0000  5.879127 7.149911 32.727998
177  4 0.0000  4.048391 1.516518  1.395444
178  4 0.0000  4.048391 1.516518 11.144999
179  4 0.0000  4.048391 1.516518 20.894554
180  4 0.0000  4.048391 1.516518 30.644109
181  4 0.0000  1.506801 5.918680  1.395444
182  4 0.0000  1.506801 5.918680 11.144999
183  4 0.0000  1.506801 5.918680 20.894554
184  4 0.0000  1.506801 5.918680 30.644109
185  4 0.0000  9.131569 1.516518  1.395444
186  4 0.0000  9.131569 1.516518 11.144999
187  4 0.0000  9.131569 1.516518 20.894554
188  4 0.0000  9.131569 1.516518 30.644109
189  4 0.0000  6.589979 5.918680  1.395444
190  4 0.0000  6.589979 5.918680 11.144999
191  4 0.0000  6.589979 5.918680 20.894554
192  4 0.0000  6.589979 5.918680 30.644109
193  4 0.0000  1.745639 2.747750  1.395444
194  4 0.0000  1.745639 2.747750 11.144999
195  4 0.0000  1.745639 2.747750 20.894554
196  4 0.0000  1.745639 2.747750 30.644109
197  4 0.0000 -0.795951 7.149911  1.395444
198  4 0.0000 -0.795951 7.149911 11.144999
199  4 0.0000 -0.795951 7.149911 20.894554
200  4 0.0000 -0.795951 7.149911 30.644109
201  4 0.0000  6.828818 2.747750  1.395444
202  4 0.0000  6.828818 2.747750 11.144999
203  4 0.0000  6.828818 2.747750 20.894554
204  4 0.0000  6.828818 2.747750 30.644109
205  4 0.0000  4.287228 7.149911  1.395444
206  4 0.0000  4.287228 7.149911 11.144999
207  4 0.0000  4.287228 7.149911 20.894554
208  4 0.0000  4.287228 7.149911 30.644109
209  4 0.0000  3.252441 0.137893  3.479333
210  4 0.0000  3.252441 0.137893 13.228888
211  4 0.0000  3.252441 0.137893 22.978443
212  4 0.0000  3.252441 0.137893 32.727998
213  4 0.0000  0.710851 4.540055  3.479333
214  4 0.0000  0.710851 4.540055 13.228888
215  4 0.0000  0.710851 4.540055 22.978443
216  4 0.0000  0.710851 4.540055 32.727998
217  4 0.0000  8.335620 0.137893  3.479333
218  4 0.0000  8.335620 0.137893 13.228888
219  4 0.0000  8.335620 0.137893 22.978443
220  4 0.0000  8.335620 0.137893 32.727998
221  4 0.0000  5.794030 4.540055  3.479333
222  4 0.0000  5.794030 4.540055 13.228888
223  4 0.0000  5.794030 4.540055 22.978443
224  4 0.0000  5.794030 4.540055 32.727998
225  4 0.0000 -1.506802 2.885643  8.354111
226  4 0.0000 -1.506802 2.885643 18.103666
227  4 0.0000 -1.506802 2.885643 27.853221
228  4 0.0000 -1.506802 2.885643 37.602776
229  4 0.0000 -4.048392 7.287805  8.354111
230  4 0.0000 -4.048392 7.287805 18.103666
231  4 0.0000 -4.048392 7.287805 27.853221
232  4 0.0000 -4.048392 7.287805 37.602776
233  4 0.0000  3.576377 2.885643  8.354111
234  4 0.0000  3.576377 2.885643 18.103666
235  4 0.0000  3.576377 2.885643 27.853221
236  4 0.0000  3.576377 2.885643 37.602776
237  4 0.0000  1.034787 7.287805  8.354111
238  4 0.0000  1.034787 7.287805 18.103666
239  4 0.0000  1.034787 7.287805 27.853221
240  4 0.0000  1.034787 7.287805 37.602776
241  4 0.0000  1.034788 1.516518  3.479333
242  4 0.0000  1.034788 1.516518 13.228888
243  4 0.0000  1.034788 1.516518 22.978443
244  4 0.0000  1.034788 1.516518 32.727998
245  4 0.0000 -1.506802 5.918680  3.479333
246  4 0.0000 -1.506802 5.918680 13.228888
247  4 0.0000 -1.506802 5.918680 22.978443
248  4 0.0000 -1.506802 5.918680 32.727998
249  4 0.0000  6.117966 1.516518  3.479333
250  4 0.0000  6.117966 1.516518 13.228888
251  4 0.0000  6.117966 1.516518 22.978443
252  4 0.0000  6.117966 1.516518 32.727998
253  4 0.0000  3.576376 5.918680  3.479333
254  4 0.0000  3.576376 5.918680 13.228888
255  4 0.0000  3.576376 5.918680 22.978443
256  4 0.0000  3.576376 5.918680 32.727998
257  4 0.0000  0.710851 4.264268  8.354111
258  4 0.0000  0.710851 4.264268 18.103666
259  4 0.0000  0.710851 4.264268 27.853221
260  4 0.0000  0.710851 4.264268 37.602776
261  4 0.0000 -1.830739 8.666430  8.354111
262  4 0.0000 -1.830739 8.666430 18.103666
263  4 0.0000 -1.830739 8.666430 27.853221
264  4 0.0000 -1.830739 8.666430 37.602776
265  4 0.0000  5.794030 4.264268  8.354111
266  4 0.0000  5.794030 4.264268 18.103666
267  4 0.0000  5.794030 4.264268 27.853221
268  4 0.0000  5.794030 4.264268 37.602776
269  4 0.0000  3.252440 8.666430  8.354111
270  4 0.0000  3.252440 8.666430 18.103666
271  4 0.0000  3.252440 8.666430 27.853221
272  4 0.0000  3.252440 8.666430 37.602776
273  4 0.0000  0.795949 1.654412  8.354111
274  4 0.0000  0.795949 1.654412 18.103666
275  4 0.0000  0.795949 1.654412 27.853221
276  4 0.0000  0.795949 1.654412 37.602776
277  4 0.0000 -1.745641 6.056573  8.354111
278  4 0.0000 -1.745641 6.056573 18.103666
279  4 0.0000 -1.745641 6.056573 27.853221
280  4 0.0000 -1.745641 6.056573 37.602776
281  4 0.0000  5.879128 1.654412  8.354111
282  4 0.0000  5.879128 1.654412 18.103666
283  4 0.0000  5.879128 1.654412 27.853221
284  4 0.0000  5.879128 1.654412 37.602776
285  4 0.0000  3.337538 6.056573  8.354111
286  4 0.0000  3.337538 6.056573 18.103666
287  4 0.0000  3.337538 6.056573 27.853221
288  4 0.0000  3.337538 6.056573 37.602776

