Generated by pymatgen.io.lammps.data.LammpsData

1728  atoms

   4  atom types

0.000000 20.332714  xlo xhi
0.000000 17.608646  ylo yhi
0.000000 58.497330  zlo zhi
-10.166360 0.000000 0.000000  xy xz yz

Masses

1   6.941000
2  40.078000
3  26.981539
4  18.998403

Atoms

1     1 0.0000 -0.000000  2.934774  2.437389
2     1 0.0000 -0.000000  2.934774 12.186944
3     1 0.0000 -0.000000  2.934774 21.936499
4     1 0.0000 -0.000000  2.934774 31.686054
5     1 0.0000 -0.000000  2.934774 41.435609
6     1 0.0000 -0.000000  2.934774 51.185164
7     1 0.0000 -2.541590  7.336936  2.437389
8     1 0.0000 -2.541590  7.336936 12.186944
9     1 0.0000 -2.541590  7.336936 21.936499
10    1 0.0000 -2.541590  7.336936 31.686054
11    1 0.0000 -2.541590  7.336936 41.435609
12    1 0.0000 -2.541590  7.336936 51.185164
13    1 0.0000 -5.083180 11.739097  2.437389
14    1 0.0000 -5.083180 11.739097 12.186944
15    1 0.0000 -5.083180 11.739097 21.936499
16    1 0.0000 -5.083180 11.739097 31.686054
17    1 0.0000 -5.083180 11.739097 41.435609
18    1 0.0000 -5.083180 11.739097 51.185164
19    1 0.0000 -7.624770 16.141259  2.437389
20    1 0.0000 -7.624770 16.141259 12.186944
21    1 0.0000 -7.624770 16.141259 21.936499
22    1 0.0000 -7.624770 16.141259 31.686054
23    1 0.0000 -7.624770 16.141259 41.435609
24    1 0.0000 -7.624770 16.141259 51.185164
25    1 0.0000  5.083178  2.934774  2.437389
26    1 0.0000  5.083178  2.934774 12.186944
27    1 0.0000  5.083178  2.934774 21.936499
28    1 0.0000  5.083178  2.934774 31.686054
29    1 0.0000  5.083178  2.934774 41.435609
30    1 0.0000  5.083178  2.934774 51.185164
31    1 0.0000  2.541588  7.336936  2.437389
32    1 0.0000  2.541588  7.336936 12.186944
33    1 0.0000  2.541588  7.336936 21.936499
34    1 0.0000  2.541588  7.336936 31.686054
35    1 0.0000  2.541588  7.336936 41.435609
36    1 0.0000  2.541588  7.336936 51.185164
37    1 0.0000 -0.000002 11.739097  2.437389
38    1 0.0000 -0.000002 11.739097 12.186944
39    1 0.0000 -0.000002 11.739097 21.936499
40    1 0.0000 -0.000002 11.739097 31.686054
41    1 0.0000 -0.000002 11.739097 41.435609
42    1 0.0000 -0.000002 11.739097 51.185164
43    1 0.0000 -2.541592 16.141259  2.437389
44    1 0.0000 -2.541592 16.141259 12.186944
45    1 0.0000 -2.541592 16.141259 21.936499
46    1 0.0000 -2.541592 16.141259 31.686054
47    1 0.0000 -2.541592 16.141259 41.435609
48    1 0.0000 -2.541592 16.141259 51.185164
49    1 0.0000 10.166357  2.934774  2.437389
50    1 0.0000 10.166357  2.934774 12.186944
51    1 0.0000 10.166357  2.934774 21.936499
52    1 0.0000 10.166357  2.934774 31.686054
53    1 0.0000 10.166357  2.934774 41.435609
54    1 0.0000 10.166357  2.934774 51.185164
55    1 0.0000  7.624767  7.336936  2.437389
56    1 0.0000  7.624767  7.336936 12.186944
57    1 0.0000  7.624767  7.336936 21.936499
58    1 0.0000  7.624767  7.336936 31.686054
59    1 0.0000  7.624767  7.336936 41.435609
60    1 0.0000  7.624767  7.336936 51.185164
61    1 0.0000  5.083177 11.739097  2.437389
62    1 0.0000  5.083177 11.739097 12.186944
63    1 0.0000  5.083177 11.739097 21.936499
64    1 0.0000  5.083177 11.739097 31.686054
65    1 0.0000  5.083177 11.739097 41.435609
66    1 0.0000  5.083177 11.739097 51.185164
67    1 0.0000  2.541587 16.141259  2.437389
68    1 0.0000  2.541587 16.141259 12.186944
69    1 0.0000  2.541587 16.141259 21.936499
70    1 0.0000  2.541587 16.141259 31.686054
71    1 0.0000  2.541587 16.141259 41.435609
72    1 0.0000  2.541587 16.141259 51.185164
73    1 0.0000 15.249535  2.934774  2.437389
74    1 0.0000 15.249535  2.934774 12.186944
75    1 0.0000 15.249535  2.934774 21.936499
76    1 0.0000 15.249535  2.934774 31.686054
77    1 0.0000 15.249535  2.934774 41.435609
78    1 0.0000 15.249535  2.934774 51.185164
79    1 0.0000 12.707946  7.336936  2.437389
80    1 0.0000 12.707946  7.336936 12.186944
81    1 0.0000 12.707946  7.336936 21.936499
82    1 0.0000 12.707946  7.336936 31.686054
83    1 0.0000 12.707946  7.336936 41.435609
84    1 0.0000 12.707946  7.336936 51.185164
85    1 0.0000 10.166356 11.739097  2.437389
86    1 0.0000 10.166356 11.739097 12.186944
87    1 0.0000 10.166356 11.739097 21.936499
88    1 0.0000 10.166356 11.739097 31.686054
89    1 0.0000 10.166356 11.739097 41.435609
90    1 0.0000 10.166356 11.739097 51.185164
91    1 0.0000  7.624766 16.141259  2.437389
92    1 0.0000  7.624766 16.141259 12.186944
93    1 0.0000  7.624766 16.141259 21.936499
94    1 0.0000  7.624766 16.141259 31.686054
95    1 0.0000  7.624766 16.141259 41.435609
96    1 0.0000  7.624766 16.141259 51.185164
97    1 0.0000  2.541589  1.467387  7.312166
98    1 0.0000  2.541589  1.467387 17.061721
99    1 0.0000  2.541589  1.467387 26.811276
100   1 0.0000  2.541589  1.467387 36.560831
101   1 0.0000  2.541589  1.467387 46.310386
102   1 0.0000  2.541589  1.467387 56.059941
103   1 0.0000 -0.000001  5.869549  7.312166
104   1 0.0000 -0.000001  5.869549 17.061721
105   1 0.0000 -0.000001  5.869549 26.811276
106   1 0.0000 -0.000001  5.869549 36.560831
107   1 0.0000 -0.000001  5.869549 46.310386
108   1 0.0000 -0.000001  5.869549 56.059941
109   1 0.0000 -2.541591 10.271710  7.312166
110   1 0.0000 -2.541591 10.271710 17.061721
111   1 0.0000 -2.541591 10.271710 26.811276
112   1 0.0000 -2.541591 10.271710 36.560831
113   1 0.0000 -2.541591 10.271710 46.310386
114   1 0.0000 -2.541591 10.271710 56.059941
115   1 0.0000 -5.083181 14.673872  7.312166
116   1 0.0000 -5.083181 14.673872 17.061721
117   1 0.0000 -5.083181 14.673872 26.811276
118   1 0.0000 -5.083181 14.673872 36.560831
119   1 0.0000 -5.083181 14.673872 46.310386
120   1 0.0000 -5.083181 14.673872 56.059941
121   1 0.0000  7.624768  1.467387  7.312166
122   1 0.0000  7.624768  1.467387 17.061721
123   1 0.0000  7.624768  1.467387 26.811276
124   1 0.0000  7.624768  1.467387 36.560831
125   1 0.0000  7.624768  1.467387 46.310386
126   1 0.0000  7.624768  1.467387 56.059941
127   1 0.0000  5.083178  5.869549  7.312166
128   1 0.0000  5.083178  5.869549 17.061721
129   1 0.0000  5.083178  5.869549 26.811276
130   1 0.0000  5.083178  5.869549 36.560831
131   1 0.0000  5.083178  5.869549 46.310386
132   1 0.0000  5.083178  5.869549 56.059941
133   1 0.0000  2.541588 10.271710  7.312166
134   1 0.0000  2.541588 10.271710 17.061721
135   1 0.0000  2.541588 10.271710 26.811276
136   1 0.0000  2.541588 10.271710 36.560831
137   1 0.0000  2.541588 10.271710 46.310386
138   1 0.0000  2.541588 10.271710 56.059941
139   1 0.0000 -0.000002 14.673872  7.312166
140   1 0.0000 -0.000002 14.673872 17.061721
141   1 0.0000 -0.000002 14.673872 26.811276
142   1 0.0000 -0.000002 14.673872 36.560831
143   1 0.0000 -0.000002 14.673872 46.310386
144   1 0.0000 -0.000002 14.673872 56.059941
145   1 0.0000 12.707946  1.467387  7.312166
146   1 0.0000 12.707946  1.467387 17.061721
147   1 0.0000 12.707946  1.467387 26.811276
148   1 0.0000 12.707946  1.467387 36.560831
149   1 0.0000 12.707946  1.467387 46.310386
150   1 0.0000 12.707946  1.467387 56.059941
151   1 0.0000 10.166356  5.869549  7.312166
152   1 0.0000 10.166356  5.869549 17.061721
153   1 0.0000 10.166356  5.869549 26.811276
154   1 0.0000 10.166356  5.869549 36.560831
155   1 0.0000 10.166356  5.869549 46.310386
156   1 0.0000 10.166356  5.869549 56.059941
157   1 0.0000  7.624766 10.271710  7.312166
158   1 0.0000  7.624766 10.271710 17.061721
159   1 0.0000  7.624766 10.271710 26.811276
160   1 0.0000  7.624766 10.271710 36.560831
161   1 0.0000  7.624766 10.271710 46.310386
162   1 0.0000  7.624766 10.271710 56.059941
163   1 0.0000  5.083177 14.673872  7.312166
164   1 0.0000  5.083177 14.673872 17.061721
165   1 0.0000  5.083177 14.673872 26.811276
166   1 0.0000  5.083177 14.673872 36.560831
167   1 0.0000  5.083177 14.673872 46.310386
168   1 0.0000  5.083177 14.673872 56.059941
169   1 0.0000 17.791125  1.467387  7.312166
170   1 0.0000 17.791125  1.467387 17.061721
171   1 0.0000 17.791125  1.467387 26.811276
172   1 0.0000 17.791125  1.467387 36.560831
173   1 0.0000 17.791125  1.467387 46.310386
174   1 0.0000 17.791125  1.467387 56.059941
175   1 0.0000 15.249535  5.869549  7.312166
176   1 0.0000 15.249535  5.869549 17.061721
177   1 0.0000 15.249535  5.869549 26.811276
178   1 0.0000 15.249535  5.869549 36.560831
179   1 0.0000 15.249535  5.869549 46.310386
180   1 0.0000 15.249535  5.869549 56.059941
181   1 0.0000 12.707945 10.271710  7.312166
182   1 0.0000 12.707945 10.271710 17.061721
183   1 0.0000 12.707945 10.271710 26.811276
184   1 0.0000 12.707945 10.271710 36.560831
185   1 0.0000 12.707945 10.271710 46.310386
186   1 0.0000 12.707945 10.271710 56.059941
187   1 0.0000 10.166355 14.673872  7.312166
188   1 0.0000 10.166355 14.673872 17.061721
189   1 0.0000 10.166355 14.673872 26.811276
190   1 0.0000 10.166355 14.673872 36.560831
191   1 0.0000 10.166355 14.673872 46.310386
192   1 0.0000 10.166355 14.673872 56.059941
193   2 0.0000  0.000000  0.000000  0.000000
194   2 0.0000  0.000000  0.000000  9.749555
195   2 0.0000  0.000000  0.000000 19.499110
196   2 0.0000  0.000000  0.000000 29.248665
197   2 0.0000  0.000000  0.000000 38.998220
198   2 0.0000  0.000000  0.000000 48.747775
199   2 0.0000 -2.541590  4.402161  0.000000
200   2 0.0000 -2.541590  4.402161  9.749555
201   2 0.0000 -2.541590  4.402161 19.499110
202   2 0.0000 -2.541590  4.402161 29.248665
203   2 0.0000 -2.541590  4.402161 38.998220
204   2 0.0000 -2.541590  4.402161 48.747775
205   2 0.0000 -5.083180  8.804323  0.000000
206   2 0.0000 -5.083180  8.804323  9.749555
207   2 0.0000 -5.083180  8.804323 19.499110
208   2 0.0000 -5.083180  8.804323 29.248665
209   2 0.0000 -5.083180  8.804323 38.998220
210   2 0.0000 -5.083180  8.804323 48.747775
211   2 0.0000 -7.624770 13.206484  0.000000
212   2 0.0000 -7.624770 13.206484  9.749555
213   2 0.0000 -7.624770 13.206484 19.499110
214   2 0.0000 -7.624770 13.206484 29.248665
215   2 0.0000 -7.624770 13.206484 38.998220
216   2 0.0000 -7.624770 13.206484 48.747775
217   2 0.0000  5.083179  0.000000  0.000000
218   2 0.0000  5.083179  0.000000  9.749555
219   2 0.0000  5.083179  0.000000 19.499110
220   2 0.0000  5.083179  0.000000 29.248665
221   2 0.0000  5.083179  0.000000 38.998220
222   2 0.0000  5.083179  0.000000 48.747775
223   2 0.0000  2.541589  4.402161  0.000000
224   2 0.0000  2.541589  4.402161  9.749555
225   2 0.0000  2.541589  4.402161 19.499110
226   2 0.0000  2.541589  4.402161 29.248665
227   2 0.0000  2.541589  4.402161 38.998220
228   2 0.0000  2.541589  4.402161 48.747775
229   2 0.0000 -0.000001  8.804323  0.000000
230   2 0.0000 -0.000001  8.804323  9.749555
231   2 0.0000 -0.000001  8.804323 19.499110
232   2 0.0000 -0.000001  8.804323 29.248665
233   2 0.0000 -0.000001  8.804323 38.998220
234   2 0.0000 -0.000001  8.804323 48.747775
235   2 0.0000 -2.541591 13.206484  0.000000
236   2 0.0000 -2.541591 13.206484  9.749555
237   2 0.0000 -2.541591 13.206484 19.499110
238   2 0.0000 -2.541591 13.206484 29.248665
239   2 0.0000 -2.541591 13.206484 38.998220
240   2 0.0000 -2.541591 13.206484 48.747775
241   2 0.0000 10.166357  0.000000  0.000000
242   2 0.0000 10.166357  0.000000  9.749555
243   2 0.0000 10.166357  0.000000 19.499110
244   2 0.0000 10.166357  0.000000 29.248665
245   2 0.0000 10.166357  0.000000 38.998220
246   2 0.0000 10.166357  0.000000 48.747775
247   2 0.0000  7.624767  4.402161  0.000000
248   2 0.0000  7.624767  4.402161  9.749555
249   2 0.0000  7.624767  4.402161 19.499110
250   2 0.0000  7.624767  4.402161 29.248665
251   2 0.0000  7.624767  4.402161 38.998220
252   2 0.0000  7.624767  4.402161 48.747775
253   2 0.0000  5.083177  8.804323  0.000000
254   2 0.0000  5.083177  8.804323  9.749555
255   2 0.0000  5.083177  8.804323 19.499110
256   2 0.0000  5.083177  8.804323 29.248665
257   2 0.0000  5.083177  8.804323 38.998220
258   2 0.0000  5.083177  8.804323 48.747775
259   2 0.0000  2.541587 13.206484  0.000000
260   2 0.0000  2.541587 13.206484  9.749555
261   2 0.0000  2.541587 13.206484 19.499110
262   2 0.0000  2.541587 13.206484 29.248665
263   2 0.0000  2.541587 13.206484 38.998220
264   2 0.0000  2.541587 13.206484 48.747775
265   2 0.0000 15.249536  0.000000  0.000000
266   2 0.0000 15.249536  0.000000  9.749555
267   2 0.0000 15.249536  0.000000 19.499110
268   2 0.0000 15.249536  0.000000 29.248665
269   2 0.0000 15.249536  0.000000 38.998220
270   2 0.0000 15.249536  0.000000 48.747775
271   2 0.0000 12.707946  4.402161  0.000000
272   2 0.0000 12.707946  4.402161  9.749555
273   2 0.0000 12.707946  4.402161 19.499110
274   2 0.0000 12.707946  4.402161 29.248665
275   2 0.0000 12.707946  4.402161 38.998220
276   2 0.0000 12.707946  4.402161 48.747775
277   2 0.0000 10.166356  8.804323  0.000000
278   2 0.0000 10.166356  8.804323  9.749555
279   2 0.0000 10.166356  8.804323 19.499110
280   2 0.0000 10.166356  8.804323 29.248665
281   2 0.0000 10.166356  8.804323 38.998220
282   2 0.0000 10.166356  8.804323 48.747775
283   2 0.0000  7.624766 13.206484  0.000000
284   2 0.0000  7.624766 13.206484  9.749555
285   2 0.0000  7.624766 13.206484 19.499110
286   2 0.0000  7.624766 13.206484 29.248665
287   2 0.0000  7.624766 13.206484 38.998220
288   2 0.0000  7.624766 13.206484 48.747775
289   2 0.0000  0.000000  0.000000  4.874778
290   2 0.0000  0.000000  0.000000 14.624333
291   2 0.0000  0.000000  0.000000 24.373888
292   2 0.0000  0.000000  0.000000 34.123443
293   2 0.0000  0.000000  0.000000 43.872998
294   2 0.0000  0.000000  0.000000 53.622552
295   2 0.0000 -2.541590  4.402161  4.874778
296   2 0.0000 -2.541590  4.402161 14.624333
297   2 0.0000 -2.541590  4.402161 24.373888
298   2 0.0000 -2.541590  4.402161 34.123443
299   2 0.0000 -2.541590  4.402161 43.872998
300   2 0.0000 -2.541590  4.402161 53.622552
301   2 0.0000 -5.083180  8.804323  4.874778
302   2 0.0000 -5.083180  8.804323 14.624333
303   2 0.0000 -5.083180  8.804323 24.373888
304   2 0.0000 -5.083180  8.804323 34.123443
305   2 0.0000 -5.083180  8.804323 43.872998
306   2 0.0000 -5.083180  8.804323 53.622552
307   2 0.0000 -7.624770 13.206484  4.874778
308   2 0.0000 -7.624770 13.206484 14.624332
309   2 0.0000 -7.624770 13.206484 24.373888
310   2 0.0000 -7.624770 13.206484 34.123443
311   2 0.0000 -7.624770 13.206484 43.872998
312   2 0.0000 -7.624770 13.206484 53.622552
313   2 0.0000  5.083179  0.000000  4.874778
314   2 0.0000  5.083179  0.000000 14.624333
315   2 0.0000  5.083179  0.000000 24.373888
316   2 0.0000  5.083179  0.000000 34.123443
317   2 0.0000  5.083179  0.000000 43.872998
318   2 0.0000  5.083179  0.000000 53.622552
319   2 0.0000  2.541589  4.402161  4.874778
320   2 0.0000  2.541589  4.402161 14.624333
321   2 0.0000  2.541589  4.402161 24.373888
322   2 0.0000  2.541589  4.402161 34.123443
323   2 0.0000  2.541589  4.402161 43.872998
324   2 0.0000  2.541589  4.402161 53.622552
325   2 0.0000 -0.000001  8.804323  4.874778
326   2 0.0000 -0.000001  8.804323 14.624332
327   2 0.0000 -0.000001  8.804323 24.373888
328   2 0.0000 -0.000001  8.804323 34.123443
329   2 0.0000 -0.000001  8.804323 43.872998
330   2 0.0000 -0.000001  8.804323 53.622552
331   2 0.0000 -2.541591 13.206484  4.874777
332   2 0.0000 -2.541591 13.206484 14.624332
333   2 0.0000 -2.541591 13.206484 24.373888
334   2 0.0000 -2.541591 13.206484 34.123443
335   2 0.0000 -2.541591 13.206484 43.872998
336   2 0.0000 -2.541591 13.206484 53.622552
337   2 0.0000 10.166357  0.000000  4.874778
338   2 0.0000 10.166357  0.000000 14.624333
339   2 0.0000 10.166357  0.000000 24.373888
340   2 0.0000 10.166357  0.000000 34.123443
341   2 0.0000 10.166357  0.000000 43.872998
342   2 0.0000 10.166357  0.000000 53.622552
343   2 0.0000  7.624767  4.402161  4.874778
344   2 0.0000  7.624767  4.402161 14.624332
345   2 0.0000  7.624767  4.402161 24.373888
346   2 0.0000  7.624767  4.402161 34.123443
347   2 0.0000  7.624767  4.402161 43.872998
348   2 0.0000  7.624767  4.402161 53.622552
349   2 0.0000  5.083177  8.804323  4.874777
350   2 0.0000  5.083177  8.804323 14.624332
351   2 0.0000  5.083177  8.804323 24.373888
352   2 0.0000  5.083177  8.804323 34.123443
353   2 0.0000  5.083177  8.804323 43.872998
354   2 0.0000  5.083177  8.804323 53.622552
355   2 0.0000  2.541587 13.206484  4.874778
356   2 0.0000  2.541587 13.206484 14.624332
357   2 0.0000  2.541587 13.206484 24.373888
358   2 0.0000  2.541587 13.206484 34.123443
359   2 0.0000  2.541587 13.206484 43.872998
360   2 0.0000  2.541587 13.206484 53.622552
361   2 0.0000 15.249536  0.000000  4.874778
362   2 0.0000 15.249536  0.000000 14.624332
363   2 0.0000 15.249536  0.000000 24.373888
364   2 0.0000 15.249536  0.000000 34.123443
365   2 0.0000 15.249536  0.000000 43.872998
366   2 0.0000 15.249536  0.000000 53.622552
367   2 0.0000 12.707946  4.402161  4.874777
368   2 0.0000 12.707946  4.402161 14.624332
369   2 0.0000 12.707946  4.402161 24.373888
370   2 0.0000 12.707946  4.402161 34.123443
371   2 0.0000 12.707946  4.402161 43.872998
372   2 0.0000 12.707946  4.402161 53.622552
373   2 0.0000 10.166356  8.804323  4.874778
374   2 0.0000 10.166356  8.804323 14.624332
375   2 0.0000 10.166356  8.804323 24.373888
376   2 0.0000 10.166356  8.804323 34.123443
377   2 0.0000 10.166356  8.804323 43.872998
378   2 0.0000 10.166356  8.804323 53.622552
379   2 0.0000  7.624766 13.206484  4.874778
380   2 0.0000  7.624766 13.206484 14.624332
381   2 0.0000  7.624766 13.206484 24.373888
382   2 0.0000  7.624766 13.206484 34.123443
383   2 0.0000  7.624766 13.206484 43.872998
384   2 0.0000  7.624766 13.206484 53.622552
385   3 0.0000  2.541589  1.467387  2.437389
386   3 0.0000  2.541589  1.467387 12.186944
387   3 0.0000  2.541589  1.467387 21.936499
388   3 0.0000  2.541589  1.467387 31.686054
389   3 0.0000  2.541589  1.467387 41.435609
390   3 0.0000  2.541589  1.467387 51.185164
391   3 0.0000 -0.000001  5.869549  2.437389
392   3 0.0000 -0.000001  5.869549 12.186944
393   3 0.0000 -0.000001  5.869549 21.936499
394   3 0.0000 -0.000001  5.869549 31.686054
395   3 0.0000 -0.000001  5.869549 41.435609
396   3 0.0000 -0.000001  5.869549 51.185164
397   3 0.0000 -2.541591 10.271710  2.437389
398   3 0.0000 -2.541591 10.271710 12.186944
399   3 0.0000 -2.541591 10.271710 21.936499
400   3 0.0000 -2.541591 10.271710 31.686054
401   3 0.0000 -2.541591 10.271710 41.435609
402   3 0.0000 -2.541591 10.271710 51.185164
403   3 0.0000 -5.083181 14.673872  2.437389
404   3 0.0000 -5.083181 14.673872 12.186944
405   3 0.0000 -5.083181 14.673872 21.936499
406   3 0.0000 -5.083181 14.673872 31.686054
407   3 0.0000 -5.083181 14.673872 41.435609
408   3 0.0000 -5.083181 14.673872 51.185164
409   3 0.0000  7.624768  1.467387  2.437389
410   3 0.0000  7.624768  1.467387 12.186944
411   3 0.0000  7.624768  1.467387 21.936499
412   3 0.0000  7.624768  1.467387 31.686054
413   3 0.0000  7.624768  1.467387 41.435609
414   3 0.0000  7.624768  1.467387 51.185164
415   3 0.0000  5.083178  5.869549  2.437389
416   3 0.0000  5.083178  5.869549 12.186944
417   3 0.0000  5.083178  5.869549 21.936499
418   3 0.0000  5.083178  5.869549 31.686054
419   3 0.0000  5.083178  5.869549 41.435609
420   3 0.0000  5.083178  5.869549 51.185164
421   3 0.0000  2.541588 10.271710  2.437389
422   3 0.0000  2.541588 10.271710 12.186944
423   3 0.0000  2.541588 10.271710 21.936499
424   3 0.0000  2.541588 10.271710 31.686054
425   3 0.0000  2.541588 10.271710 41.435609
426   3 0.0000  2.541588 10.271710 51.185164
427   3 0.0000 -0.000002 14.673872  2.437389
428   3 0.0000 -0.000002 14.673872 12.186944
429   3 0.0000 -0.000002 14.673872 21.936499
430   3 0.0000 -0.000002 14.673872 31.686054
431   3 0.0000 -0.000002 14.673872 41.435609
432   3 0.0000 -0.000002 14.673872 51.185164
433   3 0.0000 12.707946  1.467387  2.437389
434   3 0.0000 12.707946  1.467387 12.186944
435   3 0.0000 12.707946  1.467387 21.936499
436   3 0.0000 12.707946  1.467387 31.686054
437   3 0.0000 12.707946  1.467387 41.435609
438   3 0.0000 12.707946  1.467387 51.185164
439   3 0.0000 10.166356  5.869549  2.437389
440   3 0.0000 10.166356  5.869549 12.186944
441   3 0.0000 10.166356  5.869549 21.936499
442   3 0.0000 10.166356  5.869549 31.686054
443   3 0.0000 10.166356  5.869549 41.435609
444   3 0.0000 10.166356  5.869549 51.185164
445   3 0.0000  7.624766 10.271710  2.437389
446   3 0.0000  7.624766 10.271710 12.186944
447   3 0.0000  7.624766 10.271710 21.936499
448   3 0.0000  7.624766 10.271710 31.686054
449   3 0.0000  7.624766 10.271710 41.435609
450   3 0.0000  7.624766 10.271710 51.185164
451   3 0.0000  5.083177 14.673872  2.437389
452   3 0.0000  5.083177 14.673872 12.186944
453   3 0.0000  5.083177 14.673872 21.936499
454   3 0.0000  5.083177 14.673872 31.686054
455   3 0.0000  5.083177 14.673872 41.435609
456   3 0.0000  5.083177 14.673872 51.185164
457   3 0.0000 17.791125  1.467387  2.437389
458   3 0.0000 17.791125  1.467387 12.186944
459   3 0.0000 17.791125  1.467387 21.936499
460   3 0.0000 17.791125  1.467387 31.686054
461   3 0.0000 17.791125  1.467387 41.435609
462   3 0.0000 17.791125  1.467387 51.185164
463   3 0.0000 15.249535  5.869549  2.437389
464   3 0.0000 15.249535  5.869549 12.186944
465   3 0.0000 15.249535  5.869549 21.936499
466   3 0.0000 15.249535  5.869549 31.686054
467   3 0.0000 15.249535  5.869549 41.435609
468   3 0.0000 15.249535  5.869549 51.185164
469   3 0.0000 12.707945 10.271710  2.437389
470   3 0.0000 12.707945 10.271710 12.186944
471   3 0.0000 12.707945 10.271710 21.936499
472   3 0.0000 12.707945 10.271710 31.686054
473   3 0.0000 12.707945 10.271710 41.435609
474   3 0.0000 12.707945 10.271710 51.185164
475   3 0.0000 10.166355 14.673872  2.437389
476   3 0.0000 10.166355 14.673872 12.186944
477   3 0.0000 10.166355 14.673872 21.936499
478   3 0.0000 10.166355 14.673872 31.686054
479   3 0.0000 10.166355 14.673872 41.435609
480   3 0.0000 10.166355 14.673872 51.185164
481   3 0.0000 -0.000000  2.934774  7.312166
482   3 0.0000 -0.000000  2.934774 17.061721
483   3 0.0000 -0.000000  2.934774 26.811276
484   3 0.0000 -0.000000  2.934774 36.560831
485   3 0.0000 -0.000000  2.934774 46.310386
486   3 0.0000 -0.000000  2.934774 56.059941
487   3 0.0000 -2.541590  7.336936  7.312166
488   3 0.0000 -2.541590  7.336936 17.061721
489   3 0.0000 -2.541590  7.336936 26.811276
490   3 0.0000 -2.541590  7.336936 36.560831
491   3 0.0000 -2.541590  7.336936 46.310386
492   3 0.0000 -2.541590  7.336936 56.059941
493   3 0.0000 -5.083180 11.739097  7.312166
494   3 0.0000 -5.083180 11.739097 17.061721
495   3 0.0000 -5.083180 11.739097 26.811276
496   3 0.0000 -5.083180 11.739097 36.560831
497   3 0.0000 -5.083180 11.739097 46.310386
498   3 0.0000 -5.083180 11.739097 56.059941
499   3 0.0000 -7.624770 16.141259  7.312166
500   3 0.0000 -7.624770 16.141259 17.061721
501   3 0.0000 -7.624770 16.141259 26.811276
502   3 0.0000 -7.624770 16.141259 36.560831
503   3 0.0000 -7.624770 16.141259 46.310386
504   3 0.0000 -7.624770 16.141259 56.059941
505   3 0.0000  5.083178  2.934774  7.312166
506   3 0.0000  5.083178  2.934774 17.061721
507   3 0.0000  5.083178  2.934774 26.811276
508   3 0.0000  5.083178  2.934774 36.560831
509   3 0.0000  5.083178  2.934774 46.310386
510   3 0.0000  5.083178  2.934774 56.059941
511   3 0.0000  2.541588  7.336936  7.312166
512   3 0.0000  2.541588  7.336936 17.061721
513   3 0.0000  2.541588  7.336936 26.811276
514   3 0.0000  2.541588  7.336936 36.560831
515   3 0.0000  2.541588  7.336936 46.310386
516   3 0.0000  2.541588  7.336936 56.059941
517   3 0.0000 -0.000002 11.739097  7.312166
518   3 0.0000 -0.000002 11.739097 17.061721
519   3 0.0000 -0.000002 11.739097 26.811276
520   3 0.0000 -0.000002 11.739097 36.560831
521   3 0.0000 -0.000002 11.739097 46.310386
522   3 0.0000 -0.000002 11.739097 56.059941
523   3 0.0000 -2.541592 16.141259  7.312166
524   3 0.0000 -2.541592 16.141259 17.061721
525   3 0.0000 -2.541592 16.141259 26.811276
526   3 0.0000 -2.541592 16.141259 36.560831
527   3 0.0000 -2.541592 16.141259 46.310386
528   3 0.0000 -2.541592 16.141259 56.059941
529   3 0.0000 10.166357  2.934774  7.312166
530   3 0.0000 10.166357  2.934774 17.061721
531   3 0.0000 10.166357  2.934774 26.811276
532   3 0.0000 10.166357  2.934774 36.560831
533   3 0.0000 10.166357  2.934774 46.310386
534   3 0.0000 10.166357  2.934774 56.059941
535   3 0.0000  7.624767  7.336936  7.312166
536   3 0.0000  7.624767  7.336936 17.061721
537   3 0.0000  7.624767  7.336936 26.811276
538   3 0.0000  7.624767  7.336936 36.560831
539   3 0.0000  7.624767  7.336936 46.310386
540   3 0.0000  7.624767  7.336936 56.059941
541   3 0.0000  5.083177 11.739097  7.312166
542   3 0.0000  5.083177 11.739097 17.061721
543   3 0.0000  5.083177 11.739097 26.811276
544   3 0.0000  5.083177 11.739097 36.560831
545   3 0.0000  5.083177 11.739097 46.310386
546   3 0.0000  5.083177 11.739097 56.059941
547   3 0.0000  2.541587 16.141259  7.312166
548   3 0.0000  2.541587 16.141259 17.061721
549   3 0.0000  2.541587 16.141259 26.811276
550   3 0.0000  2.541587 16.141259 36.560831
551   3 0.0000  2.541587 16.141259 46.310386
552   3 0.0000  2.541587 16.141259 56.059941
553   3 0.0000 15.249535  2.934774  7.312166
554   3 0.0000 15.249535  2.934774 17.061721
555   3 0.0000 15.249535  2.934774 26.811276
556   3 0.0000 15.249535  2.934774 36.560831
557   3 0.0000 15.249535  2.934774 46.310386
558   3 0.0000 15.249535  2.934774 56.059941
559   3 0.0000 12.707946  7.336936  7.312166
560   3 0.0000 12.707946  7.336936 17.061721
561   3 0.0000 12.707946  7.336936 26.811276
562   3 0.0000 12.707946  7.336936 36.560831
563   3 0.0000 12.707946  7.336936 46.310386
564   3 0.0000 12.707946  7.336936 56.059941
565   3 0.0000 10.166356 11.739097  7.312166
566   3 0.0000 10.166356 11.739097 17.061721
567   3 0.0000 10.166356 11.739097 26.811276
568   3 0.0000 10.166356 11.739097 36.560831
569   3 0.0000 10.166356 11.739097 46.310386
570   3 0.0000 10.166356 11.739097 56.059941
571   3 0.0000  7.624766 16.141259  7.312166
572   3 0.0000  7.624766 16.141259 17.061721
573   3 0.0000  7.624766 16.141259 26.811276
574   3 0.0000  7.624766 16.141259 36.560831
575   3 0.0000  7.624766 16.141259 46.310386
576   3 0.0000  7.624766 16.141259 56.059941
577   4 0.0000  1.830737  0.137893  1.395444
578   4 0.0000  1.830737  0.137893 11.144999
579   4 0.0000  1.830737  0.137893 20.894554
580   4 0.0000  1.830737  0.137893 30.644109
581   4 0.0000  1.830737  0.137893 40.393664
582   4 0.0000  1.830737  0.137893 50.143219
583   4 0.0000 -0.710853  4.540055  1.395444
584   4 0.0000 -0.710853  4.540055 11.144999
585   4 0.0000 -0.710853  4.540055 20.894554
586   4 0.0000 -0.710853  4.540055 30.644109
587   4 0.0000 -0.710853  4.540055 40.393664
588   4 0.0000 -0.710853  4.540055 50.143219
589   4 0.0000 -3.252443  8.942216  1.395444
590   4 0.0000 -3.252443  8.942216 11.144999
591   4 0.0000 -3.252443  8.942216 20.894554
592   4 0.0000 -3.252443  8.942216 30.644109
593   4 0.0000 -3.252443  8.942216 40.393664
594   4 0.0000 -3.252443  8.942216 50.143219
595   4 0.0000 -5.794033 13.344378  1.395444
596   4 0.0000 -5.794033 13.344378 11.144999
597   4 0.0000 -5.794033 13.344378 20.894554
598   4 0.0000 -5.794033 13.344378 30.644109
599   4 0.0000 -5.794033 13.344378 40.393664
600   4 0.0000 -5.794033 13.344378 50.143219
601   4 0.0000  6.913916  0.137893  1.395444
602   4 0.0000  6.913916  0.137893 11.144999
603   4 0.0000  6.913916  0.137893 20.894554
604   4 0.0000  6.913916  0.137893 30.644109
605   4 0.0000  6.913916  0.137893 40.393664
606   4 0.0000  6.913916  0.137893 50.143219
607   4 0.0000  4.372326  4.540055  1.395444
608   4 0.0000  4.372326  4.540055 11.144999
609   4 0.0000  4.372326  4.540055 20.894554
610   4 0.0000  4.372326  4.540055 30.644109
611   4 0.0000  4.372326  4.540055 40.393664
612   4 0.0000  4.372326  4.540055 50.143219
613   4 0.0000  1.830736  8.942216  1.395444
614   4 0.0000  1.830736  8.942216 11.144999
615   4 0.0000  1.830736  8.942216 20.894554
616   4 0.0000  1.830736  8.942216 30.644109
617   4 0.0000  1.830736  8.942216 40.393664
618   4 0.0000  1.830736  8.942216 50.143219
619   4 0.0000 -0.710854 13.344378  1.395444
620   4 0.0000 -0.710854 13.344378 11.144999
621   4 0.0000 -0.710854 13.344378 20.894554
622   4 0.0000 -0.710854 13.344378 30.644109
623   4 0.0000 -0.710854 13.344378 40.393664
624   4 0.0000 -0.710854 13.344378 50.143219
625   4 0.0000 11.997094  0.137893  1.395444
626   4 0.0000 11.997094  0.137893 11.144999
627   4 0.0000 11.997094  0.137893 20.894554
628   4 0.0000 11.997094  0.137893 30.644109
629   4 0.0000 11.997094  0.137893 40.393664
630   4 0.0000 11.997094  0.137893 50.143219
631   4 0.0000  9.455505  4.540055  1.395444
632   4 0.0000  9.455505  4.540055 11.144999
633   4 0.0000  9.455505  4.540055 20.894554
634   4 0.0000  9.455505  4.540055 30.644109
635   4 0.0000  9.455505  4.540055 40.393664
636   4 0.0000  9.455505  4.540055 50.143219
637   4 0.0000  6.913915  8.942216  1.395444
638   4 0.0000  6.913915  8.942216 11.144999
639   4 0.0000  6.913915  8.942216 20.894554
640   4 0.0000  6.913915  8.942216 30.644109
641   4 0.0000  6.913915  8.942216 40.393664
642   4 0.0000  6.913915  8.942216 50.143219
643   4 0.0000  4.372325 13.344378  1.395444
644   4 0.0000  4.372325 13.344378 11.144999
645   4 0.0000  4.372325 13.344378 20.894554
646   4 0.0000  4.372325 13.344378 30.644109
647   4 0.0000  4.372325 13.344378 40.393664
648   4 0.0000  4.372325 13.344378 50.143219
649   4 0.0000 17.080273  0.137893  1.395444
650   4 0.0000 17.080273  0.137893 11.144999
651   4 0.0000 17.080273  0.137893 20.894554
652   4 0.0000 17.080273  0.137893 30.644109
653   4 0.0000 17.080273  0.137893 40.393664
654   4 0.0000 17.080273  0.137893 50.143219
655   4 0.0000 14.538683  4.540055  1.395444
656   4 0.0000 14.538683  4.540055 11.144999
657   4 0.0000 14.538683  4.540055 20.894554
658   4 0.0000 14.538683  4.540055 30.644109
659   4 0.0000 14.538683  4.540055 40.393664
660   4 0.0000 14.538683  4.540055 50.143219