Generated by pymatgen.io.lammps.data.LammpsData

528  atoms

  3  atom types

0.000000 17.584979  xlo xhi
0.000000 16.579284  ylo yhi
0.000000 28.716176  zlo zhi
-5.861659 -11.723323 -16.579286  xy xz yz

Masses

1   72.6400
2  208.9804
3   15.9994

Atoms

1    1 0.0000   2.930829   4.144817  7.179040
2    1 0.0000  -0.000002  -0.000004 14.358084
3    1 0.0000  -2.930832  -4.144826 21.537128
4    1 0.0000  -5.861663  -8.289647 28.716172
5    1 0.0000  -0.000001  12.434459  7.179040
6    1 0.0000  -2.930831   8.289638 14.358084
7    1 0.0000  -5.861662   4.144816 21.537128
8    1 0.0000  -8.792493  -0.000005 28.716172
9    1 0.0000  11.723319   4.144817  7.179040
10   1 0.0000   8.792488  -0.000004 14.358084
11   1 0.0000   5.861657  -4.144826 21.537128
12   1 0.0000   2.930826  -8.289647 28.716172
13   1 0.0000   8.792489  12.434459  7.179040
14   1 0.0000   5.861658   8.289638 14.358084
15   1 0.0000   2.930828   4.144816 21.537128
16   1 0.0000  -0.000003  -0.000005 28.716172
17   2 0.0000  -2.867193   2.221459  6.148868
18   2 0.0000  -5.798024  -1.923362 13.327912
19   2 0.0000  -8.728855  -6.068184 20.506956
20   2 0.0000 -11.659685 -10.213005 27.686000
21   2 0.0000  -5.798023  10.511101  6.148868
22   2 0.0000  -8.728854   6.366280 13.327912
23   2 0.0000 -11.659684   2.221458 20.506956
24   2 0.0000 -14.590515  -1.923363 27.686000
25   2 0.0000   5.925296   2.221459  6.148868
26   2 0.0000   2.994466  -1.923362 13.327912
27   2 0.0000   0.063635  -6.068184 20.506956
28   2 0.0000  -2.867196 -10.213005 27.686000
29   2 0.0000   2.994467  10.511101  6.148868
30   2 0.0000   0.063636   6.366280 13.327912
31   2 0.0000  -2.867195   2.221458 20.506956
32   2 0.0000  -5.798025  -1.923363 27.686000
33   2 0.0000   5.980976   2.182089  1.030190
34   2 0.0000   3.050145  -1.962733  8.209234
35   2 0.0000   0.119314  -6.107554 15.388278
36   2 0.0000  -2.811517 -10.252376 22.567322
37   2 0.0000   3.050146  10.471731  1.030190
38   2 0.0000   0.119315   6.326909  8.209234
39   2 0.0000  -2.811516   2.182088 15.388278
40   2 0.0000  -5.742346  -1.962734 22.567322
41   2 0.0000  14.773465   2.182089  1.030190
42   2 0.0000  11.842634  -1.962733  8.209234
43   2 0.0000   8.911804  -6.107554 15.388278
44   2 0.0000   5.980973 -10.252376 22.567322
45   2 0.0000  11.842636  10.471731  1.030190
46   2 0.0000   8.911805   6.326909  8.209234
47   2 0.0000   5.980974   2.182088 15.388278
48   2 0.0000   3.050143  -1.962734 22.567322
49   2 0.0000   3.680484   3.420687  3.623615
50   2 0.0000   0.749653  -0.724134 10.802659
51   2 0.0000  -2.181178  -4.868955 17.981703
52   2 0.0000  -5.112008  -9.013777 25.160747
53   2 0.0000   0.749654  11.710329  3.623615
54   2 0.0000  -2.181177   7.565508 10.802659
55   2 0.0000  -5.112007   3.420687 17.981703
56   2 0.0000  -8.042838  -0.724135 25.160747
57   2 0.0000  12.472973   3.420687  3.623615
58   2 0.0000   9.542143  -0.724134 10.802659
59   2 0.0000   6.611312  -4.868955 17.981703
60   2 0.0000   3.680481  -9.013777 25.160747
61   2 0.0000   9.542144  11.710329  3.623615
62   2 0.0000   6.611313   7.565508 10.802659
63   2 0.0000   3.680482   3.420687 17.981703
64   2 0.0000   0.749651  -0.724135 25.160747
65   2 0.0000  -2.181177   5.572622  2.404833
66   2 0.0000  -5.112007   1.427801  9.583877
67   2 0.0000  -8.042838  -2.717021 16.762922
68   2 0.0000 -10.973669  -6.861842 23.941966
69   2 0.0000  -5.112006  13.862264  2.404833
70   2 0.0000  -8.042837   9.717443  9.583877
71   2 0.0000 -10.973668   5.572621 16.762922
72   2 0.0000 -13.904499   1.427800 23.941966
73   2 0.0000   6.611313   5.572622  2.404833
74   2 0.0000   3.680482   1.427801  9.583877
75   2 0.0000   0.749651  -2.717021 16.762922
76   2 0.0000  -2.181179  -6.861842 23.941966
77   2 0.0000   3.680483  13.862264  2.404833
78   2 0.0000   0.749653   9.717443  9.583877
79   2 0.0000  -2.181178   5.572621 16.762922
80   2 0.0000  -5.112009   1.427800 23.941966
81   2 0.0000   3.050139   6.306442  1.374658
82   2 0.0000   0.119309   2.161621  8.553702
83   2 0.0000  -2.811522  -1.983201 15.732746
84   2 0.0000  -5.742353  -6.128022 22.911790
85   2 0.0000   0.119310  14.596084  1.374658
86   2 0.0000  -2.811521  10.451263  8.553702
87   2 0.0000  -5.742352   6.306441 15.732746
88   2 0.0000  -8.673182   2.161620 22.911790
89   2 0.0000  11.842629   6.306442  1.374658
90   2 0.0000   8.911798   2.161621  8.553702
91   2 0.0000   5.980967  -1.983201 15.732746
92   2 0.0000   3.050137  -6.128022 22.911790
93   2 0.0000   8.911799  14.596084  1.374658
94   2 0.0000   5.980969  10.451263  8.553702
95   2 0.0000   3.050138   6.306441 15.732746
96   2 0.0000   0.119307   2.161620 22.911790
97   2 0.0000   0.749659   3.441156  1.150593
98   2 0.0000  -2.181171  -0.703665  8.329637
99   2 0.0000  -5.112002  -4.848486 15.508681
100  2 0.0000  -8.042833  -8.993308 22.687725
101  2 0.0000  -2.181170  11.730798  1.150593
102  2 0.0000  -5.112001   7.585977  8.329637
103  2 0.0000  -8.042832   3.441156 15.508681
104  2 0.0000 -10.973662  -0.703666 22.687725
105  2 0.0000   9.542149   3.441156  1.150593
106  2 0.0000   6.611318  -0.703665  8.329637
107  2 0.0000   3.680488  -4.848486 15.508681
108  2 0.0000   0.749657  -8.993308 22.687725
109  2 0.0000   6.611319  11.730798  1.150593
110  2 0.0000   3.680489   7.585977  8.329637
111  2 0.0000   0.749658   3.441156 15.508681
112  2 0.0000  -2.181173  -0.703666 22.687725
113  2 0.0000   2.994467   0.069524  2.180768
114  2 0.0000   0.063636  -4.075298  9.359812
115  2 0.0000  -2.867195  -8.220119 16.538856
116  2 0.0000  -5.798025 -12.364941 23.717900
117  2 0.0000   0.063637   8.359166  2.180768
118  2 0.0000  -2.867194   4.214344  9.359812
119  2 0.0000  -5.798024   0.069523 16.538856
120  2 0.0000  -8.728855  -4.075299 23.717900
121  2 0.0000  11.786956   0.069524  2.180768
122  2 0.0000   8.856126  -4.075298  9.359812
123  2 0.0000   5.925295  -8.220119 16.538856
124  2 0.0000   2.994464 -12.364941 23.717900
125  2 0.0000   8.856127   8.359166  2.180768
126  2 0.0000   5.925296   4.214344  9.359812
127  2 0.0000   2.994465   0.069523 16.538856
128  2 0.0000   0.063634  -4.075299 23.717900
129  2 0.0000   0.063639  -2.290984  6.028452
130  2 0.0000  -2.867192  -6.435805 13.207496
131  2 0.0000  -5.798022 -10.580627 20.386540
132  2 0.0000  -8.728853 -14.725448 27.565584
133  2 0.0000  -2.867190   5.998658  6.028452
134  2 0.0000  -5.798021   1.853837 13.207496
135  2 0.0000  -8.728852  -2.290985 20.386540
136  2 0.0000 -11.659683  -6.435806 27.565584
137  2 0.0000   8.856129  -2.290984  6.028452
138  2 0.0000   5.925298  -6.435805 13.207496
139  2 0.0000   2.994467 -10.580627 20.386540
140  2 0.0000   0.063636 -14.725448 27.565584
141  2 0.0000   5.925299   5.998658  6.028452
142  2 0.0000   2.994468   1.853837 13.207496
143  2 0.0000   0.063638  -2.290985 20.386540
144  2 0.0000  -2.867193  -6.435806 27.565584
145  2 0.0000   0.119315   3.945941  4.774199
146  2 0.0000  -2.811516  -0.198880 11.953243
147  2 0.0000  -5.742347  -4.343702 19.132287
148  2 0.0000  -8.673177  -8.488523 26.311331
149  2 0.0000  -2.811515  12.235583  4.774199
150  2 0.0000  -5.742346   8.090762 11.953243
151  2 0.0000  -8.673176   3.945940 19.132287
152  2 0.0000 -11.604007  -0.198881 26.311331
153  2 0.0000   8.911804   3.945941  4.774199
154  2 0.0000   5.980974  -0.198880 11.953243
155  2 0.0000   3.050143  -4.343702 19.132287
156  2 0.0000   0.119312  -8.488523 26.311331
157  2 0.0000   5.980975  12.235583  4.774199
158  2 0.0000   3.050144   8.090762 11.953243
159  2 0.0000   0.119313   3.945940 19.132287
160  2 0.0000  -2.811518  -0.198881 26.311331
161  2 0.0000   1.998221   0.833026  5.804388
162  2 0.0000  -0.932610  -3.311795 12.983432
163  2 0.0000  -3.863441  -7.456617 20.162476
164  2 0.0000  -6.794272 -11.601438 27.341520
165  2 0.0000  -0.932609   9.122668  5.804388
166  2 0.0000  -3.863440   4.977847 12.983432
167  2 0.0000  -6.794270   0.833025 20.162476
168  2 0.0000  -9.725101  -3.311796 27.341520
169  2 0.0000  10.790710   0.833026  5.804388
170  2 0.0000   7.859880  -3.311795 12.983432
171  2 0.0000   4.929049  -7.456617 20.162476
172  2 0.0000   1.998218 -11.601438 27.341520
173  2 0.0000   7.859881   9.122668  5.804388
174  2 0.0000   4.929050   4.977847 12.983432
175  2 0.0000   1.998219   0.833025 20.162476
176  2 0.0000  -0.932612  -3.311796 27.341520
177  2 0.0000   4.929049  -1.298435  4.998281
178  2 0.0000   1.998219  -5.443256 12.177325
179  2 0.0000  -0.932612  -9.588078 19.356369
180  2 0.0000  -3.863443 -13.732899 26.535413
181  2 0.0000   1.998220   6.991207  4.998281
182  2 0.0000  -0.932611   2.846386 12.177325
183  2 0.0000  -3.863442  -1.298436 19.356369
184  2 0.0000  -6.794273  -5.443257 26.535413
185  2 0.0000  13.721539  -1.298435  4.998281
186  2 0.0000  10.790708  -5.443256 12.177325
187  2 0.0000   7.859877  -9.588078 19.356369
188  2 0.0000   4.929047 -13.732899 26.535413
189  2 0.0000  10.790709   6.991207  4.998281
190  2 0.0000   7.859878   2.846386 12.177325
191  2 0.0000   4.929048  -1.298436 19.356369
192  2 0.0000   1.998217  -5.443257 26.535413
193  2 0.0000  -0.932606   0.465406  3.555429
194  2 0.0000  -3.863436  -3.679415 10.734473
195  2 0.0000  -6.794267  -7.824236 17.913517
196  2 0.0000  -9.725098 -11.969058 25.092561
197  2 0.0000  -3.863435   8.755048  3.555429
198  2 0.0000  -6.794266   4.610227 10.734473
199  2 0.0000  -9.725097   0.465406 17.913517
200  2 0.0000 -12.655928  -3.679416 25.092561
201  2 0.0000   7.859884   0.465406  3.555429
202  2 0.0000   4.929053  -3.679415 10.734473
203  2 0.0000   1.998222  -7.824236 17.913517
204  2 0.0000  -0.932608 -11.969058 25.092561
205  2 0.0000   4.929054   8.755048  3.555429
206  2 0.0000   1.998223   4.610227 10.734473
207  2 0.0000  -0.932607   0.465406 17.913517
208  2 0.0000  -3.863438  -3.679416 25.092561
209  3 0.0000   7.018247  -0.000000  0.000000
210  3 0.0000   4.087416  -4.144821  7.179044
211  3 0.0000   1.156585  -8.289643 14.358088
212  3 0.0000  -1.774246 -12.434464 21.537132
213  3 0.0000   4.087417   8.289642  0.000000
214  3 0.0000   1.156586   4.144821  7.179044
215  3 0.0000  -1.774244  -0.000001 14.358088
216  3 0.0000  -4.705075  -4.144822 21.537132
217  3 0.0000  15.810736  -0.000000  0.000000
218  3 0.0000  12.879905  -4.144821  7.179044
219  3 0.0000   9.949075  -8.289643 14.358088
220  3 0.0000   7.018244 -12.434464 21.537132
221  3 0.0000  12.879907   8.289642  0.000000
222  3 0.0000   9.949076   4.144821  7.179044
223  3 0.0000   7.018245  -0.000001 14.358088
224  3 0.0000   4.087414  -4.144822 21.537132
225  3 0.0000   0.591409   0.836379  1.448656
226  3 0.0000  -2.339421  -3.308442  8.627700
227  3 0.0000  -5.270252  -7.453264 15.806744
228  3 0.0000  -8.201083 -11.598085 22.985788
229  3 0.0000  -2.339420   9.126021  1.448656
230  3 0.0000  -5.270251   4.981200  8.627700
231  3 0.0000  -8.201082   0.836378 15.806744
232  3 0.0000 -11.131912  -3.308443 22.985788
233  3 0.0000   9.383899   0.836379  1.448656
234  3 0.0000   6.453068  -3.308442  8.627700
235  3 0.0000   3.522237  -7.453264 15.806744
236  3 0.0000   0.591407 -11.598085 22.985788
237  3 0.0000   6.453069   9.126021  1.448656
238  3 0.0000   3.522239   4.981200  8.627700
239  3 0.0000   0.591408   0.836378 15.806744
240  3 0.0000  -2.339423  -3.308443 22.985788
241  3 0.0000   3.522243   2.472050  7.179043
242  3 0.0000   0.591412  -1.672772 14.358087
243  3 0.0000  -2.339418  -5.817593 21.537131
244  3 0.0000  -5.270249  -9.962415 28.716175
245  3 0.0000   0.591413  10.761692  7.179043
246  3 0.0000  -2.339417   6.616870 14.358087
247  3 0.0000  -5.270248   2.472049 21.537131
248  3 0.0000  -8.201079  -1.672773 28.716175
249  3 0.0000  12.314733   2.472050  7.179043
250  3 0.0000   9.383902  -1.672772 14.358087
251  3 0.0000   6.453071  -5.817593 21.537131
252  3 0.0000   3.522240  -9.962415 28.716175
253  3 0.0000   9.383903  10.761692  7.179043
254  3 0.0000   6.453072   6.616870 14.358087
255  3 0.0000   3.522241   2.472049 21.537131
256  3 0.0000   0.591411  -1.672773 28.716175
257  3 0.0000   3.522241   4.981204  5.730381
258  3 0.0000   0.591410   0.836382 12.909425
259  3 0.0000  -2.339420  -3.308439 20.088469
260  3 0.0000  -5.270251  -7.453261 27.267513
261  3 0.0000   0.591411  13.270846  5.730381
262  3 0.0000  -2.339419   9.126024 12.909425
263  3 0.0000  -5.270250   4.981203 20.088469
264  3 0.0000  -8.201081   0.836381 27.267513
265  3 0.0000  12.314731   4.981204  5.730381
266  3 0.0000   9.383900   0.836382 12.909425
267  3 0.0000   6.453069  -3.308439 20.088469
268  3 0.0000   3.522238  -7.453261 27.267513
269  3 0.0000   9.383901  13.270846  5.730381
270  3 0.0000   6.453070   9.126024 12.909425
271  3 0.0000   3.522240   4.981203 20.088469
272  3 0.0000   0.591409   0.836381 27.267513
273  3 0.0000   0.515305   8.289639  0.000000
274  3 0.0000  -2.415525   4.144818  7.179044
275  3 0.0000  -5.346356  -0.000004 14.358088
276  3 0.0000  -8.277187  -4.144825 21.537132
277  3 0.0000  -2.415524  16.579281  0.000000
278  3 0.0000  -5.346355  12.434460  7.179044
279  3 0.0000  -8.277186   8.289638 14.358088
280  3 0.0000 -11.208016   4.144817 21.537132
281  3 0.0000   9.307795   8.289639  0.000000
282  3 0.0000   6.376964   4.144818  7.179044
283  3 0.0000   3.446133  -0.000004 14.358088
284  3 0.0000   0.515303  -4.144825 21.537132
285  3 0.0000   6.376965  16.579281  0.000000
286  3 0.0000   3.446135  12.434460  7.179044
287  3 0.0000   0.515304   8.289638 14.358088
288  3 0.0000  -2.415527   4.144817 21.537132
289  3 0.0000   1.782116   2.520293  4.365283
290  3 0.0000  -1.148715  -1.624528 11.544327
291  3 0.0000  -4.079545  -5.769349 18.723371
292  3 0.0000  -7.010376  -9.914171 25.902415
293  3 0.0000  -1.148713  10.809935  4.365283
294  3 0.0000  -4.079544   6.665114 11.544327
295  3 0.0000  -7.010375   2.520293 18.723371
296  3 0.0000  -9.941206  -1.624529 25.902415
297  3 0.0000  10.574606   2.520293  4.365283
298  3 0.0000   7.643775  -1.624528 11.544327
299  3 0.0000   4.712944  -5.769349 18.723371
300  3 0.0000   1.782114  -9.914171 25.902415
301  3 0.0000   7.643776  10.809935  4.365283
302  3 0.0000   4.712945   6.665114 11.544327
303  3 0.0000   1.782115   2.520293 18.723371
304  3 0.0000  -1.148716  -1.624529 25.902415
305  3 0.0000  -4.079542  -0.895770  7.179044
306  3 0.0000  -7.010373  -5.040591 14.358088
307  3 0.0000  -9.941204  -9.185413 21.537132
308  3 0.0000 -12.872035 -13.330234 28.716176
309  3 0.0000  -7.010372   7.393872  7.179044
310  3 0.0000  -9.941203   3.249051 14.358088
311  3 0.0000 -12.872034  -0.895771 21.537132
312  3 0.0000 -15.802864  -5.040592 28.716176
313  3 0.0000   4.712947  -0.895770  7.179044
314  3 0.0000   1.782116  -5.040591 14.358088
315  3 0.0000  -1.148714  -9.185413 21.537132
316  3 0.0000  -4.079545 -13.330234 28.716176
317  3 0.0000   1.782118   7.393872  7.179044
318  3 0.0000  -1.148713   3.249051 14.358088
319  3 0.0000  -4.079544  -0.895771 21.537132
320  3 0.0000  -7.010375  -5.040592 28.716176
321  3 0.0000   7.643775  -1.624525  2.813762
322  3 0.0000   4.712945  -5.769346  9.992806
323  3 0.0000   1.782114  -9.914167 17.171850
324  3 0.0000  -1.148717 -14.058989 24.350894
325  3 0.0000   4.712946   6.665117  2.813762
326  3 0.0000   1.782115   2.520296  9.992806
327  3 0.0000  -1.148716  -1.624525 17.171850
328  3 0.0000  -4.079547  -5.769347 24.350894
329  3 0.0000  16.436265  -1.624525  2.813762
330  3 0.0000  13.505434  -5.769346  9.992806
331  3 0.0000  10.574603  -9.914167 17.171850
332  3 0.0000   7.643773 -14.058989 24.350894
333  3 0.0000  13.505435   6.665117  2.813762
334  3 0.0000  10.574604   2.520296  9.992806
335  3 0.0000   7.643774  -1.624525 17.171850
336  3 0.0000   4.712943  -5.769347 24.350894
337  3 0.0000   2.188943  -1.689439  6.317179
338  3 0.0000  -0.741887  -5.834260 13.496223
339  3 0.0000  -3.672718  -9.979081 20.675267
340  3 0.0000  -6.603549 -14.123903 27.854311
341  3 0.0000  -0.741886   6.600203  6.317179
342  3 0.0000  -3.672717   2.455382 13.496223
343  3 0.0000  -6.603548  -1.689439 20.675267
344  3 0.0000  -9.534379  -5.834261 27.854311
345  3 0.0000  10.981433  -1.689439  6.317179
346  3 0.0000   8.050602  -5.834260 13.496223
347  3 0.0000   5.119771  -9.979081 20.675267
348  3 0.0000   2.188941 -14.123903 27.854311
349  3 0.0000   8.050603   6.600203  6.317179
350  3 0.0000   5.119772   2.455382 13.496223
351  3 0.0000   2.188942  -1.689439 20.675267
352  3 0.0000  -0.741889  -5.834261 27.854311
353  3 0.0000   0.608358   5.645435  0.861881
354  3 0.0000  -2.322473   1.500613  8.040925
355  3 0.0000  -5.253303  -2.644208 15.219969
356  3 0.0000  -8.184134  -6.789030 22.399013
357  3 0.0000  -2.322472  13.935077  0.861881
358  3 0.0000  -5.253302   9.790255  8.040925
359  3 0.0000  -8.184133   5.645434 15.219969
360  3 0.0000 -11.114964   1.500612 22.399013
361  3 0.0000   9.400848   5.645435  0.861881
362  3 0.0000   6.470017   1.500613  8.040925
363  3 0.0000   3.539186  -2.644208 15.219969
364  3 0.0000   0.608355  -6.789030 22.399013
365  3 0.0000   6.470018  13.935077  0.861881
366  3 0.0000   3.539187   9.790255  8.040925
367  3 0.0000   0.608357   5.645434 15.219969
368  3 0.0000  -2.322474   1.500612 22.399013
369  3 0.0000   0.770487  -0.403195  4.416375
370  3 0.0000  -2.160344  -4.548016 11.595419
371  3 0.0000  -5.091175  -8.692837 18.774463
372  3 0.0000  -8.022005 -12.837659 25.953507
373  3 0.0000  -2.160343   7.886447  4.416375
374  3 0.0000  -5.091173   3.741626 11.595419
375  3 0.0000  -8.022004  -0.403195 18.774463
376  3 0.0000 -10.952835  -4.548017 25.953507
377  3 0.0000   9.562976  -0.403195  4.416375
378  3 0.0000   6.632146  -4.548016 11.595419
379  3 0.0000   3.701315  -8.692837 18.774463
380  3 0.0000   0.770484 -12.837659 25.953507
381  3 0.0000   6.632147   7.886447  4.416375
382  3 0.0000   3.701316   3.741626 11.595419
383  3 0.0000   0.770485  -0.403195 18.774463
384  3 0.0000  -2.160345  -4.548017 25.953507
385  3 0.0000  -2.160344  -0.118535  5.320034
386  3 0.0000  -5.091175  -4.263357 12.499078
387  3 0.0000  -8.022006  -8.408178 19.678122
388  3 0.0000 -10.952837 -12.553000 26.857166
389  3 0.0000  -5.091174   8.171107  5.320034
390  3 0.0000  -8.022005   4.026285 12.499078
391  3 0.0000 -10.952836  -0.118536 19.678122
392  3 0.0000 -13.883666  -4.263358 26.857166
393  3 0.0000   6.632145  -0.118535  5.320034
394  3 0.0000   3.701314  -4.263357 12.499078
395  3 0.0000   0.770484  -8.408178 19.678122
396  3 0.0000  -2.160347 -12.553000 26.857166
397  3 0.0000   3.701316   8.171107  5.320034
398  3 0.0000   0.770485   4.026285 12.499078
399  3 0.0000  -2.160346  -0.118536 19.678122
400  3 0.0000  -5.091177  -4.263358 26.857166
401  3 0.0000  -2.322470   4.720515  4.458151
402  3 0.0000  -5.253301   0.575694 11.637195
403  3 0.0000  -8.184131  -3.569128 18.816239
404  3 0.0000 -11.114962  -7.713949 25.995283
405  3 0.0000  -5.253299  13.010157  4.458151
406  3 0.0000  -8.184130   8.865336 11.637195
407  3 0.0000 -11.114961   4.720514 18.816239
408  3 0.0000 -14.045792   0.575693 25.995283
409  3 0.0000   6.470020   4.720515  4.458151
410  3 0.0000   3.539189   0.575694 11.637195
411  3 0.0000   0.608358  -3.569128 18.816239
412  3 0.0000  -2.322472  -7.713949 25.995283
413  3 0.0000   3.539190  13.010157  4.458151
414  3 0.0000   0.608359   8.865336 11.637195
415  3 0.0000  -2.322471   4.720514 18.816239
416  3 0.0000  -5.253302   0.575693 25.995283
417  3 0.0000   2.293863   4.736844  2.762671
418  3 0.0000  -0.636967   0.592022  9.941715
419  3 0.0000  -3.567798  -3.552799 17.120759
420  3 0.0000  -6.498629  -7.697620 24.299803
421  3 0.0000  -0.636966  13.026486  2.762671
422  3 0.0000  -3.567797   8.881664  9.941715
423  3 0.0000  -6.498628   4.736843 17.120759
424  3 0.0000  -9.429459   0.592022 24.299803
425  3 0.0000  11.086353   4.736844  2.762671
426  3 0.0000   8.155522   0.592022  9.941715
427  3 0.0000   5.224691  -3.552799 17.120759
428  3 0.0000   2.293861  -7.697620 24.299803
429  3 0.0000   8.155523  13.026486  2.762671
430  3 0.0000   5.224693   8.881664  9.941715
431  3 0.0000   2.293862   4.736843 17.120759
432  3 0.0000  -0.636969   0.592022 24.299803
433  3 0.0000   5.224695   4.168944  1.695480
434  3 0.0000   2.293865   0.024122  8.874524
435  3 0.0000  -0.636966  -4.120699 16.053568
436  3 0.0000  -3.567797  -8.265520 23.232612
437  3 0.0000   2.293866  12.458586  1.695480
438  3 0.0000  -0.636965   8.313764  8.874524
439  3 0.0000  -3.567796   4.168943 16.053568
440  3 0.0000  -6.498626   0.024122 23.232612
441  3 0.0000  14.017185   4.168944  1.695480
442  3 0.0000  11.086354   0.024122  8.874524
443  3 0.0000   8.155523  -4.120699 16.053568
444  3 0.0000   5.224693  -8.265520 23.232612
445  3 0.0000  11.086355  12.458586  1.695480
446  3 0.0000   8.155525   8.313764  8.874524
447  3 0.0000   5.224694   4.168943 16.053568
448  3 0.0000   2.293863   0.024122 23.232612
449  3 0.0000  -0.636962   3.528673  2.720891
450  3 0.0000  -3.567792  -0.616149  9.899935
451  3 0.0000  -6.498623  -4.760970 17.078979
452  3 0.0000  -9.429454  -8.905791 24.258023
453  3 0.0000  -3.567791  11.818315  2.720891
454  3 0.0000  -6.498622   7.673493  9.899935
455  3 0.0000  -9.429453   3.528672 17.078979
456  3 0.0000 -12.360284  -0.616149 24.258023
457  3 0.0000   8.155528   3.528673  2.720891
458  3 0.0000   5.224697  -0.616149  9.899935
459  3 0.0000   2.293866  -4.760970 17.078979
460  3 0.0000  -0.636964  -8.905791 24.258023
461  3 0.0000   5.224698  11.818315  2.720891
462  3 0.0000   2.293868   7.673493  9.899935
463  3 0.0000  -0.636963   3.528672 17.078979
464  3 0.0000  -3.567794  -0.616149 24.258023
465  3 0.0000   3.539188   2.068514  1.859011
466  3 0.0000   0.608357  -2.076307  9.038055
467  3 0.0000  -2.322474  -6.221129 16.217099
468  3 0.0000  -5.253304 -10.365950 23.396143
469  3 0.0000   0.608358  10.358156  1.859011
470  3 0.0000  -2.322472   6.213335  9.038055
471  3 0.0000  -5.253303   2.068513 16.217099
472  3 0.0000  -8.184134  -2.076308 23.396143
473  3 0.0000  12.331677   2.068514  1.859011
474  3 0.0000   9.400847  -2.076307  9.038055
475  3 0.0000   6.470016  -6.221129 16.217099
476  3 0.0000   3.539185 -10.365950 23.396143
477  3 0.0000   9.400848  10.358156  1.859011
478  3 0.0000   6.470017   6.213335  9.038055
479  3 0.0000   3.539186   2.068513 16.217099
480  3 0.0000   0.608356  -2.076308 23.396143
481  3 0.0000   5.119775  -0.481277  2.557359
482  3 0.0000   2.188944  -4.626099  9.736403
483  3 0.0000  -0.741886  -8.770920 16.915447
484  3 0.0000  -3.672717 -12.915742 24.094491
485  3 0.0000   2.188945   7.808365  2.557359
486  3 0.0000  -0.741885   3.663543  9.736403
487  3 0.0000  -3.672716  -0.481278 16.915447
488  3 0.0000  -6.603547  -4.626100 24.094491
489  3 0.0000  13.912265  -0.481277  2.557359
490  3 0.0000  10.981434  -4.626099  9.736403
491  3 0.0000   8.050603  -8.770920 16.915447
492  3 0.0000   5.119772 -12.915742 24.094491
493  3 0.0000  10.981435   7.808365  2.557359
494  3 0.0000   8.050604   3.663543  9.736403
495  3 0.0000   5.119773  -0.481278 16.915447
496  3 0.0000   2.188943  -4.626100 24.094491
497  3 0.0000  -0.741887   2.170727  5.483553
498  3 0.0000  -3.672718  -1.974094 12.662597
499  3 0.0000  -6.603549  -6.118916 19.841641
500  3 0.0000  -9.534379 -10.263737 27.020685
501  3 0.0000  -3.672717  10.460369  5.483553
502  3 0.0000  -6.603548   6.315548 12.662597
503  3 0.0000  -9.534378   2.170726 19.841641
504  3 0.0000 -12.465209  -1.974095 27.020685
505  3 0.0000   8.050602   2.170727  5.483553
506  3 0.0000   5.119772  -1.974094 12.662597
507  3 0.0000   2.188941  -6.118916 19.841641
508  3 0.0000  -0.741890 -10.263737 27.020685
509  3 0.0000   5.119773  10.460369  5.483553
510  3 0.0000   2.188942   6.315548 12.662597
511  3 0.0000  -0.741889   2.170726 19.841641
512  3 0.0000  -3.672720  -1.974095 27.020685
513  3 0.0000   3.701315   0.521724  4.621683
514  3 0.0000   0.770484  -3.623097 11.800727
515  3 0.0000  -2.160347  -7.767918 18.979771
516  3 0.0000  -5.091178 -11.912740 26.158815
517  3 0.0000   0.770485   8.811366  4.621683
518  3 0.0000  -2.160346   4.666545 11.800727
519  3 0.0000  -5.091177   0.521724 18.979771
520  3 0.0000  -8.022007  -3.623098 26.158815
521  3 0.0000  12.493804   0.521724  4.621683
522  3 0.0000   9.562973  -3.623097 11.800727
523  3 0.0000   6.632143  -7.767918 18.979771
524  3 0.0000   3.701312 -11.912740 26.158815
525  3 0.0000   9.562975   8.811366  4.621683
526  3 0.0000   6.632144   4.666545 11.800727
527  3 0.0000   3.701313   0.521724 18.979771
528  3 0.0000   0.770482  -3.623098 26.158815

