Generated by pymatgen.io.lammps.data.LammpsData

3168  atoms

   3  atom types

0.000000 35.169958  xlo xhi
0.000000 33.158568  ylo yhi
0.000000 43.074264  zlo zhi
-11.723319 -17.584985 -24.868928  xy xz yz

Masses

1   72.6400
2  208.9804
3   15.9994

Atoms

1     1 0.0000   2.930829   4.144817  7.179040
2     1 0.0000  -0.000002  -0.000004 14.358084
3     1 0.0000  -2.930832  -4.144826 21.537128
4     1 0.0000  -5.861663  -8.289647 28.716172
5     1 0.0000  -8.792494 -12.434469 35.895216
6     1 0.0000 -11.723325 -16.579290 43.074260
7     1 0.0000  -0.000001  12.434459  7.179040
8     1 0.0000  -2.930831   8.289638 14.358084
9     1 0.0000  -5.861662   4.144816 21.537128
10    1 0.0000  -8.792493  -0.000005 28.716172
11    1 0.0000 -11.723324  -4.144827 35.895216
12    1 0.0000 -14.654154  -8.289648 43.074260
13    1 0.0000  -2.930830  20.724101  7.179040
14    1 0.0000  -5.861661  16.579280 14.358084
15    1 0.0000  -8.792492  12.434458 21.537128
16    1 0.0000 -11.723322   8.289637 28.716172
17    1 0.0000 -14.654153   4.144815 35.895216
18    1 0.0000 -17.584984  -0.000006 43.074260
19    1 0.0000  -5.861660  29.013743  7.179040
20    1 0.0000  -8.792491  24.868922 14.358084
21    1 0.0000 -11.723321  20.724100 21.537128
22    1 0.0000 -14.654152  16.579279 28.716172
23    1 0.0000 -17.584983  12.434457 35.895216
24    1 0.0000 -20.515814   8.289636 43.074260
25    1 0.0000  11.723319   4.144817  7.179040
26    1 0.0000   8.792488  -0.000004 14.358084
27    1 0.0000   5.861657  -4.144826 21.537128
28    1 0.0000   2.930826  -8.289647 28.716172
29    1 0.0000  -0.000004 -12.434469 35.895216
30    1 0.0000  -2.930835 -16.579290 43.074260
31    1 0.0000   8.792489  12.434459  7.179040
32    1 0.0000   5.861658   8.289638 14.358084
33    1 0.0000   2.930828   4.144816 21.537128
34    1 0.0000  -0.000003  -0.000005 28.716172
35    1 0.0000  -2.930834  -4.144827 35.895216
36    1 0.0000  -5.861665  -8.289648 43.074260
37    1 0.0000   5.861659  20.724101  7.179040
38    1 0.0000   2.930829  16.579280 14.358084
39    1 0.0000  -0.000002  12.434458 21.537128
40    1 0.0000  -2.930833   8.289637 28.716172
41    1 0.0000  -5.861664   4.144815 35.895216
42    1 0.0000  -8.792494  -0.000006 43.074260
43    1 0.0000   2.930830  29.013743  7.179040
44    1 0.0000  -0.000001  24.868922 14.358084
45    1 0.0000  -2.930832  20.724100 21.537128
46    1 0.0000  -5.861663  16.579279 28.716172
47    1 0.0000  -8.792493  12.434457 35.895216
48    1 0.0000 -11.723324   8.289636 43.074260
49    1 0.0000  20.515808   4.144817  7.179040
50    1 0.0000  17.584977  -0.000004 14.358084
51    1 0.0000  14.654147  -4.144826 21.537128
52    1 0.0000  11.723316  -8.289647 28.716172
53    1 0.0000   8.792485 -12.434469 35.895216
54    1 0.0000   5.861654 -16.579290 43.074260
55    1 0.0000  17.584979  12.434459  7.179040
56    1 0.0000  14.654148   8.289638 14.358084
57    1 0.0000  11.723317   4.144816 21.537128
58    1 0.0000   8.792486  -0.000005 28.716172
59    1 0.0000   5.861656  -4.144827 35.895216
60    1 0.0000   2.930825  -8.289648 43.074260
61    1 0.0000  14.654149  20.724101  7.179040
62    1 0.0000  11.723318  16.579280 14.358084
63    1 0.0000   8.792487  12.434458 21.537128
64    1 0.0000   5.861657   8.289637 28.716172
65    1 0.0000   2.930826   4.144815 35.895216
66    1 0.0000  -0.000005  -0.000006 43.074260
67    1 0.0000  11.723319  29.013743  7.179040
68    1 0.0000   8.792489  24.868922 14.358084
69    1 0.0000   5.861658  20.724100 21.537128
70    1 0.0000   2.930827  16.579279 28.716172
71    1 0.0000  -0.000004  12.434457 35.895216
72    1 0.0000  -2.930834   8.289636 43.074260
73    1 0.0000  29.308298   4.144817  7.179040
74    1 0.0000  26.377467  -0.000004 14.358084
75    1 0.0000  23.446636  -4.144826 21.537128
76    1 0.0000  20.515806  -8.289647 28.716172
77    1 0.0000  17.584975 -12.434469 35.895216
78    1 0.0000  14.654144 -16.579290 43.074260
79    1 0.0000  26.377468  12.434459  7.179040
80    1 0.0000  23.446637   8.289638 14.358084
81    1 0.0000  20.515807   4.144816 21.537128
82    1 0.0000  17.584976  -0.000005 28.716172
83    1 0.0000  14.654145  -4.144827 35.895216
84    1 0.0000  11.723314  -8.289648 43.074260
85    1 0.0000  23.446639  20.724101  7.179040
86    1 0.0000  20.515808  16.579280 14.358084
87    1 0.0000  17.584977  12.434458 21.537128
88    1 0.0000  14.654146   8.289637 28.716172
89    1 0.0000  11.723315   4.144815 35.895216
90    1 0.0000   8.792485  -0.000006 43.074260
91    1 0.0000  20.515809  29.013743  7.179040
92    1 0.0000  17.584978  24.868922 14.358084
93    1 0.0000  14.654147  20.724100 21.537128
94    1 0.0000  11.723317  16.579279 28.716172
95    1 0.0000   8.792486  12.434457 35.895216
96    1 0.0000   5.861655   8.289636 43.074260
97    2 0.0000  -2.867193   2.221459  6.148868
98    2 0.0000  -5.798024  -1.923362 13.327912
99    2 0.0000  -8.728855  -6.068184 20.506956
100   2 0.0000 -11.659685 -10.213005 27.686000
101   2 0.0000 -14.590516 -14.357826 34.865044
102   2 0.0000 -17.521347 -18.502648 42.044088
103   2 0.0000  -5.798023  10.511101  6.148868
104   2 0.0000  -8.728854   6.366280 13.327912
105   2 0.0000 -11.659684   2.221458 20.506956
106   2 0.0000 -14.590515  -1.923363 27.686000
107   2 0.0000 -17.521346  -6.068184 34.865044
108   2 0.0000 -20.452177 -10.213006 42.044088
109   2 0.0000  -8.728852  18.800743  6.148868
110   2 0.0000 -11.659683  14.655922 13.327912
111   2 0.0000 -14.590514  10.511100 20.506956
112   2 0.0000 -17.521345   6.366279 27.686000
113   2 0.0000 -20.452175   2.221458 34.865044
114   2 0.0000 -23.383006  -1.923364 42.044088
115   2 0.0000 -11.659682  27.090385  6.148868
116   2 0.0000 -14.590513  22.945564 13.327912
117   2 0.0000 -17.521344  18.800742 20.506956
118   2 0.0000 -20.452174  14.655921 27.686000
119   2 0.0000 -23.383005  10.511100 34.865044
120   2 0.0000 -26.313836   6.366278 42.044088
121   2 0.0000   5.925296   2.221459  6.148868
122   2 0.0000   2.994466  -1.923362 13.327912
123   2 0.0000   0.063635  -6.068184 20.506956
124   2 0.0000  -2.867196 -10.213005 27.686000
125   2 0.0000  -5.798027 -14.357826 34.865044
126   2 0.0000  -8.728857 -18.502648 42.044088
127   2 0.0000   2.994467  10.511101  6.148868
128   2 0.0000   0.063636   6.366280 13.327912
129   2 0.0000  -2.867195   2.221458 20.506956
130   2 0.0000  -5.798025  -1.923363 27.686000
131   2 0.0000  -8.728856  -6.068184 34.865044
132   2 0.0000 -11.659687 -10.213006 42.044088
133   2 0.0000   0.063637  18.800743  6.148868
134   2 0.0000  -2.867194  14.655922 13.327912
135   2 0.0000  -5.798024  10.511100 20.506956
136   2 0.0000  -8.728855   6.366279 27.686000
137   2 0.0000 -11.659686   2.221458 34.865044
138   2 0.0000 -14.590517  -1.923364 42.044088
139   2 0.0000  -2.867192  27.090385  6.148868
140   2 0.0000  -5.798023  22.945564 13.327912
141   2 0.0000  -8.728854  18.800742 20.506956
142   2 0.0000 -11.659685  14.655921 27.686000
143   2 0.0000 -14.590516  10.511100 34.865044
144   2 0.0000 -17.521346   6.366278 42.044088
145   2 0.0000  14.717786   2.221459  6.148868
146   2 0.0000  11.786955  -1.923362 13.327912
147   2 0.0000   8.856124  -6.068184 20.506956
148   2 0.0000   5.925294 -10.213005 27.686000
149   2 0.0000   2.994463 -14.357826 34.865044
150   2 0.0000   0.063632 -18.502648 42.044088
151   2 0.0000  11.786956  10.511101  6.148868
152   2 0.0000   8.856126   6.366280 13.327912
153   2 0.0000   5.925295   2.221458 20.506956
154   2 0.0000   2.994464  -1.923363 27.686000
155   2 0.0000   0.063633  -6.068184 34.865044
156   2 0.0000  -2.867197 -10.213006 42.044088
157   2 0.0000   8.856127  18.800743  6.148868
158   2 0.0000   5.925296  14.655922 13.327912
159   2 0.0000   2.994465  10.511100 20.506956
160   2 0.0000   0.063634   6.366279 27.686000
161   2 0.0000  -2.867196   2.221458 34.865044
162   2 0.0000  -5.798027  -1.923364 42.044088
163   2 0.0000   5.925297  27.090385  6.148868
164   2 0.0000   2.994466  22.945564 13.327912
165   2 0.0000   0.063636  18.800742 20.506956
166   2 0.0000  -2.867195  14.655921 27.686000
167   2 0.0000  -5.798026  10.511100 34.865044
168   2 0.0000  -8.728857   6.366278 42.044088
169   2 0.0000  23.510276   2.221459  6.148868
170   2 0.0000  20.579445  -1.923362 13.327912
171   2 0.0000  17.648614  -6.068184 20.506956
172   2 0.0000  14.717783 -10.213005 27.686000
173   2 0.0000  11.786953 -14.357826 34.865044
174   2 0.0000   8.856122 -18.502648 42.044088
175   2 0.0000  20.579446  10.511101  6.148868
176   2 0.0000  17.648615   6.366280 13.327912
177   2 0.0000  14.717784   2.221458 20.506956
178   2 0.0000  11.786954  -1.923363 27.686000
179   2 0.0000   8.856123  -6.068184 34.865044
180   2 0.0000   5.925292 -10.213006 42.044088
181   2 0.0000  17.648616  18.800743  6.148868
182   2 0.0000  14.717786  14.655922 13.327912
183   2 0.0000  11.786955  10.511100 20.506956
184   2 0.0000   8.856124   6.366279 27.686000
185   2 0.0000   5.925293   2.221458 34.865044
186   2 0.0000   2.994462  -1.923364 42.044088
187   2 0.0000  14.717787  27.090385  6.148868
188   2 0.0000  11.786956  22.945564 13.327912
189   2 0.0000   8.856125  18.800742 20.506956
190   2 0.0000   5.925294  14.655921 27.686000
191   2 0.0000   2.994464  10.511100 34.865044
192   2 0.0000   0.063633   6.366278 42.044088
193   2 0.0000   5.980976   2.182089  1.030190
194   2 0.0000   3.050145  -1.962733  8.209234
195   2 0.0000   0.119314  -6.107554 15.388278
196   2 0.0000  -2.811517 -10.252376 22.567322
197   2 0.0000  -5.742347 -14.397197 29.746366
198   2 0.0000  -8.673178 -18.542018 36.925410
199   2 0.0000   3.050146  10.471731  1.030190
200   2 0.0000   0.119315   6.326909  8.209234
201   2 0.0000  -2.811516   2.182088 15.388278
202   2 0.0000  -5.742346  -1.962734 22.567322
203   2 0.0000  -8.673177  -6.107555 29.746366
204   2 0.0000 -11.604008 -10.252376 36.925410
205   2 0.0000   0.119316  18.761373  1.030190
206   2 0.0000  -2.811514  14.616551  8.209234
207   2 0.0000  -5.742345  10.471730 15.388278
208   2 0.0000  -8.673176   6.326908 22.567322
209   2 0.0000 -11.604007   2.182087 29.746366
210   2 0.0000 -14.534837  -1.962734 36.925410
211   2 0.0000  -2.811513  27.051015  1.030190
212   2 0.0000  -5.742344  22.906193  8.209234
213   2 0.0000  -8.673175  18.761372 15.388278
214   2 0.0000 -11.604006  14.616550 22.567322
215   2 0.0000 -14.534836  10.471729 29.746366
216   2 0.0000 -17.465667   6.326908 36.925410
217   2 0.0000  14.773465   2.182089  1.030190
218   2 0.0000  11.842634  -1.962733  8.209234
219   2 0.0000   8.911804  -6.107554 15.388278
220   2 0.0000   5.980973 -10.252376 22.567322
221   2 0.0000   3.050142 -14.397197 29.746366
222   2 0.0000   0.119311 -18.542018 36.925410
223   2 0.0000  11.842636  10.471731  1.030190
224   2 0.0000   8.911805   6.326909  8.209234
225   2 0.0000   5.980974   2.182088 15.388278
226   2 0.0000   3.050143  -1.962734 22.567322
227   2 0.0000   0.119313  -6.107555 29.746366
228   2 0.0000  -2.811518 -10.252376 36.925410
229   2 0.0000   8.911806  18.761373  1.030190
230   2 0.0000   5.980975  14.616551  8.209234
231   2 0.0000   3.050144  10.471730 15.388278
232   2 0.0000   0.119314   6.326908 22.567322
233   2 0.0000  -2.811517   2.182087 29.746366
234   2 0.0000  -5.742348  -1.962734 36.925410
235   2 0.0000   5.980976  27.051015  1.030190
236   2 0.0000   3.050146  22.906193  8.209234
237   2 0.0000   0.119315  18.761372 15.388278
238   2 0.0000  -2.811516  14.616550 22.567322
239   2 0.0000  -5.742347  10.471729 29.746366
240   2 0.0000  -8.673178   6.326908 36.925410
241   2 0.0000  23.565955   2.182089  1.030190
242   2 0.0000  20.635124  -1.962733  8.209234
243   2 0.0000  17.704293  -6.107554 15.388278
244   2 0.0000  14.773462 -10.252376 22.567322
245   2 0.0000  11.842632 -14.397197 29.746366
246   2 0.0000   8.911801 -18.542018 36.925410
247   2 0.0000  20.635125  10.471731  1.030190
248   2 0.0000  17.704294   6.326909  8.209234
249   2 0.0000  14.773464   2.182088 15.388278
250   2 0.0000  11.842633  -1.962734 22.567322
251   2 0.0000   8.911802  -6.107555 29.746366
252   2 0.0000   5.980971 -10.252376 36.925410
253   2 0.0000  17.704295  18.761373  1.030190
254   2 0.0000  14.773465  14.616551  8.209234
255   2 0.0000  11.842634  10.471730 15.388278
256   2 0.0000   8.911803   6.326908 22.567322
257   2 0.0000   5.980972   2.182087 29.746366
258   2 0.0000   3.050142  -1.962734 36.925410
259   2 0.0000  14.773466  27.051015  1.030190
260   2 0.0000  11.842635  22.906193  8.209234
261   2 0.0000   8.911804  18.761372 15.388278
262   2 0.0000   5.980974  14.616550 22.567322
263   2 0.0000   3.050143  10.471729 29.746366
264   2 0.0000   0.119312   6.326908 36.925410
265   2 0.0000  32.358444   2.182089  1.030190
266   2 0.0000  29.427614  -1.962733  8.209234
267   2 0.0000  26.496783  -6.107554 15.388278
268   2 0.0000  23.565952 -10.252376 22.567322
269   2 0.0000  20.635121 -14.397197 29.746366
270   2 0.0000  17.704291 -18.542018 36.925410
271   2 0.0000  29.427615  10.471731  1.030190
272   2 0.0000  26.496784   6.326909  8.209234
273   2 0.0000  23.565953   2.182088 15.388278
274   2 0.0000  20.635122  -1.962734 22.567322
275   2 0.0000  17.704292  -6.107555 29.746366
276   2 0.0000  14.773461 -10.252376 36.925410
277   2 0.0000  26.496785  18.761373  1.030190
278   2 0.0000  23.565954  14.616551  8.209234
279   2 0.0000  20.635124  10.471730 15.388278
280   2 0.0000  17.704293   6.326908 22.567322
281   2 0.0000  14.773462   2.182087 29.746366
282   2 0.0000  11.842631  -1.962734 36.925410
283   2 0.0000  23.565955  27.051015  1.030190
284   2 0.0000  20.635125  22.906193  8.209234
285   2 0.0000  17.704294  18.761372 15.388278
286   2 0.0000  14.773463  14.616550 22.567322
287   2 0.0000  11.842632  10.471729 29.746366
288   2 0.0000   8.911802   6.326908 36.925410
289   2 0.0000   3.680484   3.420687  3.623615
290   2 0.0000   0.749653  -0.724134 10.802659
291   2 0.0000  -2.181178  -4.868955 17.981703
292   2 0.0000  -5.112008  -9.013777 25.160747
293   2 0.0000  -8.042839 -13.158598 32.339791
294   2 0.0000 -10.973670 -17.303420 39.518835
295   2 0.0000   0.749654  11.710329  3.623615
296   2 0.0000  -2.181177   7.565508 10.802659
297   2 0.0000  -5.112007   3.420687 17.981703
298   2 0.0000  -8.042838  -0.724135 25.160747
299   2 0.0000 -10.973669  -4.868956 32.339791
300   2 0.0000 -13.904500  -9.013778 39.518835
301   2 0.0000  -2.181175  19.999971  3.623615
302   2 0.0000  -5.112006  15.855150 10.802659
303   2 0.0000  -8.042837  11.710329 17.981703
304   2 0.0000 -10.973668   7.565507 25.160747
305   2 0.0000 -13.904498   3.420686 32.339791
306   2 0.0000 -16.835329  -0.724136 39.518835
307   2 0.0000  -5.112005  28.289613  3.623615
308   2 0.0000  -8.042836  24.144792 10.802659
309   2 0.0000 -10.973667  19.999971 17.981703
310   2 0.0000 -13.904497  15.855149 25.160747
311   2 0.0000 -16.835328  11.710328 32.339791
312   2 0.0000 -19.766159   7.565506 39.518835
313   2 0.0000  12.472973   3.420687  3.623615
314   2 0.0000   9.542143  -0.724134 10.802659
315   2 0.0000   6.611312  -4.868955 17.981703
316   2 0.0000   3.680481  -9.013777 25.160747
317   2 0.0000   0.749650 -13.158598 32.339791
318   2 0.0000  -2.181180 -17.303420 39.518835
319   2 0.0000   9.542144  11.710329  3.623615
320   2 0.0000   6.611313   7.565508 10.802659
321   2 0.0000   3.680482   3.420687 17.981703
322   2 0.0000   0.749651  -0.724135 25.160747
323   2 0.0000  -2.181179  -4.868956 32.339791
324   2 0.0000  -5.112010  -9.013778 39.518835
325   2 0.0000   6.611314  19.999971  3.623615
326   2 0.0000   3.680483  15.855150 10.802659
327   2 0.0000   0.749653  11.710329 17.981703
328   2 0.0000  -2.181178   7.565507 25.160747
329   2 0.0000  -5.112009   3.420686 32.339791
330   2 0.0000  -8.042840  -0.724136 39.518835
331   2 0.0000   3.680484  28.289613  3.623615
332   2 0.0000   0.749654  24.144792 10.802659
333   2 0.0000  -2.181177  19.999971 17.981703
334   2 0.0000  -5.112008  15.855149 25.160747
335   2 0.0000  -8.042839  11.710328 32.339791
336   2 0.0000 -10.973669   7.565506 39.518835
337   2 0.0000  21.265463   3.420687  3.623615
338   2 0.0000  18.334632  -0.724134 10.802659
339   2 0.0000  15.403801  -4.868955 17.981703
340   2 0.0000  12.472971  -9.013777 25.160747
341   2 0.0000   9.542140 -13.158598 32.339791
342   2 0.0000   6.611309 -17.303420 39.518835
343   2 0.0000  18.334633  11.710329  3.623615
344   2 0.0000  15.403803   7.565508 10.802659
345   2 0.0000  12.472972   3.420687 17.981703
346   2 0.0000   9.542141  -0.724135 25.160747
347   2 0.0000   6.611310  -4.868956 32.339791
348   2 0.0000   3.680480  -9.013778 39.518835
349   2 0.0000  15.403804  19.999971  3.623615
350   2 0.0000  12.472973  15.855150 10.802659
351   2 0.0000   9.542142  11.710329 17.981703
352   2 0.0000   6.611311   7.565507 25.160747
353   2 0.0000   3.680481   3.420686 32.339791
354   2 0.0000   0.749650  -0.724136 39.518835
355   2 0.0000  12.472974  28.289613  3.623615
356   2 0.0000   9.542143  24.144792 10.802659
357   2 0.0000   6.611313  19.999971 17.981703
358   2 0.0000   3.680482  15.855149 25.160747
359   2 0.0000   0.749651  11.710328 32.339791
360   2 0.0000  -2.181180   7.565506 39.518835
361   2 0.0000  30.057953   3.420687  3.623615
362   2 0.0000  27.127122  -0.724134 10.802659
363   2 0.0000  24.196291  -4.868955 17.981703
364   2 0.0000  21.265460  -9.013777 25.160747
365   2 0.0000  18.334629 -13.158598 32.339791
366   2 0.0000  15.403799 -17.303420 39.518835
367   2 0.0000  27.127123  11.710329  3.623615
368   2 0.0000  24.196292   7.565508 10.802659
369   2 0.0000  21.265461   3.420687 17.981703
370   2 0.0000  18.334631  -0.724135 25.160747
371   2 0.0000  15.403800  -4.868956 32.339791
372   2 0.0000  12.472969  -9.013778 39.518835
373   2 0.0000  24.196293  19.999971  3.623615
374   2 0.0000  21.265462  15.855150 10.802659
375   2 0.0000  18.334632  11.710329 17.981703
376   2 0.0000  15.403801   7.565507 25.160747
377   2 0.0000  12.472970   3.420686 32.339791
378   2 0.0000   9.542139  -0.724136 39.518835
379   2 0.0000  21.265464  28.289613  3.623615
380   2 0.0000  18.334633  24.144792 10.802659
381   2 0.0000  15.403802  19.999971 17.981703
382   2 0.0000  12.472971  15.855149 25.160747
383   2 0.0000   9.542141  11.710328 32.339791
384   2 0.0000   6.611310   7.565506 39.518835
385   2 0.0000  -2.181177   5.572622  2.404833
386   2 0.0000  -5.112007   1.427801  9.583877
387   2 0.0000  -8.042838  -2.717021 16.762922
388   2 0.0000 -10.973669  -6.861842 23.941966
389   2 0.0000 -13.904500 -11.006663 31.121010
390   2 0.0000 -16.835330 -15.151485 38.300054
391   2 0.0000  -5.112006  13.862264  2.404833
392   2 0.0000  -8.042837   9.717443  9.583877
393   2 0.0000 -10.973668   5.572621 16.762922
394   2 0.0000 -13.904499   1.427800 23.941966
395   2 0.0000 -16.835329  -2.717021 31.121010
396   2 0.0000 -19.766160  -6.861843 38.300054
397   2 0.0000  -8.042836  22.151906  2.404833
398   2 0.0000 -10.973667  18.007085  9.583877
399   2 0.0000 -13.904497  13.862263 16.762922
400   2 0.0000 -16.835328   9.717442 23.941966
401   2 0.0000 -19.766159   5.572621 31.121010
402   2 0.0000 -22.696990   1.427799 38.300054
403   2 0.0000 -10.973666  30.441548  2.404833
404   2 0.0000 -13.904496  26.296727  9.583877
405   2 0.0000 -16.835327  22.151905 16.762922
406   2 0.0000 -19.766158  18.007084 23.941966
407   2 0.0000 -22.696989  13.862263 31.121010
408   2 0.0000 -25.627819   9.717441 38.300054
409   2 0.0000   6.611313   5.572622  2.404833
410   2 0.0000   3.680482   1.427801  9.583877
411   2 0.0000   0.749651  -2.717021 16.762922
412   2 0.0000  -2.181179  -6.861842 23.941966
413   2 0.0000  -5.112010 -11.006663 31.121010
414   2 0.0000  -8.042841 -15.151485 38.300054
415   2 0.0000   3.680483  13.862264  2.404833
416   2 0.0000   0.749653   9.717443  9.583877
417   2 0.0000  -2.181178   5.572621 16.762922
418   2 0.0000  -5.112009   1.427800 23.941966
419   2 0.0000  -8.042840  -2.717021 31.121010
420   2 0.0000 -10.973670  -6.861843 38.300054
421   2 0.0000   0.749654  22.151906  2.404833
422   2 0.0000  -2.181177  18.007085  9.583877
423   2 0.0000  -5.112008  13.862263 16.762922
424   2 0.0000  -8.042839   9.717442 23.941966
425   2 0.0000 -10.973669   5.572621 31.121010
426   2 0.0000 -13.904500   1.427799 38.300054
427   2 0.0000  -2.181176  30.441548  2.404833
428   2 0.0000  -5.112007  26.296727  9.583877
429   2 0.0000  -8.042837  22.151905 16.762922
430   2 0.0000 -10.973668  18.007084 23.941966
431   2 0.0000 -13.904499  13.862263 31.121010
432   2 0.0000 -16.835330   9.717441 38.300054
433   2 0.0000  15.403803   5.572622  2.404833
434   2 0.0000  12.472972   1.427801  9.583877
435   2 0.0000   9.542141  -2.717021 16.762922
436   2 0.0000   6.611310  -6.861842 23.941966
437   2 0.0000   3.680479 -11.006663 31.121010
438   2 0.0000   0.749649 -15.151485 38.300054
439   2 0.0000  12.472973  13.862264  2.404833
440   2 0.0000   9.542142   9.717443  9.583877
441   2 0.0000   6.611311   5.572621 16.762922
442   2 0.0000   3.680481   1.427800 23.941966
443   2 0.0000   0.749650  -2.717021 31.121010
444   2 0.0000  -2.181181  -6.861843 38.300054
445   2 0.0000   9.542143  22.151906  2.404833
446   2 0.0000   6.611312  18.007085  9.583877
447   2 0.0000   3.680482  13.862263 16.762922
448   2 0.0000   0.749651   9.717442 23.941966
449   2 0.0000  -2.181180   5.572621 31.121010
450   2 0.0000  -5.112011   1.427799 38.300054
451   2 0.0000   6.611314  30.441548  2.404833
452   2 0.0000   3.680483  26.296727  9.583877
453   2 0.0000   0.749652  22.151905 16.762922
454   2 0.0000  -2.181179  18.007084 23.941966
455   2 0.0000  -5.112009  13.862263 31.121010
456   2 0.0000  -8.042840   9.717441 38.300054
457   2 0.0000  24.196292   5.572622  2.404833
458   2 0.0000  21.265461   1.427801  9.583877
459   2 0.0000  18.334631  -2.717021 16.762922
460   2 0.0000  15.403800  -6.861842 23.941966
461   2 0.0000  12.472969 -11.006663 31.121010
462   2 0.0000   9.542138 -15.151485 38.300054
463   2 0.0000  21.265462  13.862264  2.404833
464   2 0.0000  18.334632   9.717443  9.583877
465   2 0.0000  15.403801   5.572621 16.762922
466   2 0.0000  12.472970   1.427800 23.941966
467   2 0.0000   9.542139  -2.717021 31.121010
468   2 0.0000   6.611309  -6.861843 38.300054
469   2 0.0000  18.334633  22.151906  2.404833
470   2 0.0000  15.403802  18.007085  9.583877
471   2 0.0000  12.472971  13.862263 16.762922
472   2 0.0000   9.542141   9.717442 23.941966
473   2 0.0000   6.611310   5.572621 31.121010
474   2 0.0000   3.680479   1.427799 38.300054
475   2 0.0000  15.403803  30.441548  2.404833
476   2 0.0000  12.472972  26.296727  9.583877
477   2 0.0000   9.542142  22.151905 16.762922
478   2 0.0000   6.611311  18.007084 23.941966
479   2 0.0000   3.680480  13.862263 31.121010
480   2 0.0000   0.749649   9.717441 38.300054
481   2 0.0000   3.050139   6.306442  1.374658
482   2 0.0000   0.119309   2.161621  8.553702
483   2 0.0000  -2.811522  -1.983201 15.732746
484   2 0.0000  -5.742353  -6.128022 22.911790
485   2 0.0000  -8.673184 -10.272844 30.090834
486   2 0.0000 -11.604014 -14.417665 37.269878
487   2 0.0000   0.119310  14.596084  1.374658
488   2 0.0000  -2.811521  10.451263  8.553702
489   2 0.0000  -5.742352   6.306441 15.732746
490   2 0.0000  -8.673182   2.161620 22.911790
491   2 0.0000 -11.604013  -1.983202 30.090834
492   2 0.0000 -14.534844  -6.128023 37.269878
493   2 0.0000  -2.811520  22.885726  1.374658
494   2 0.0000  -5.742351  18.740905  8.553702
495   2 0.0000  -8.673181  14.596083 15.732746
496   2 0.0000 -11.604012  10.451262 22.911790
497   2 0.0000 -14.534843   6.306440 30.090834
498   2 0.0000 -17.465674   2.161619 37.269878
499   2 0.0000  -5.742349  31.175368  1.374658
500   2 0.0000  -8.673180  27.030547  8.553702
501   2 0.0000 -11.604011  22.885725 15.732746
502   2 0.0000 -14.534842  18.740904 22.911790
503   2 0.0000 -17.465672  14.596082 30.090834
504   2 0.0000 -20.396503  10.451261 37.269878
505   2 0.0000  11.842629   6.306442  1.374658
506   2 0.0000   8.911798   2.161621  8.553702
507   2 0.0000   5.980967  -1.983201 15.732746
508   2 0.0000   3.050137  -6.128022 22.911790
509   2 0.0000   0.119306 -10.272844 30.090834
510   2 0.0000  -2.811525 -14.417665 37.269878
511   2 0.0000   8.911799  14.596084  1.374658
512   2 0.0000   5.980969  10.451263  8.553702
513   2 0.0000   3.050138   6.306441 15.732746
514   2 0.0000   0.119307   2.161620 22.911790
515   2 0.0000  -2.811524  -1.983202 30.090834
516   2 0.0000  -5.742354  -6.128023 37.269878
517   2 0.0000   5.980970  22.885726  1.374658
518   2 0.0000   3.050139  18.740905  8.553702
519   2 0.0000   0.119308  14.596083 15.732746
520   2 0.0000  -2.811523  10.451262 22.911790
521   2 0.0000  -5.742353   6.306440 30.090834
522   2 0.0000  -8.673184   2.161619 37.269878
523   2 0.0000   3.050140  31.175368  1.374658
524   2 0.0000   0.119309  27.030547  8.553702
525   2 0.0000  -2.811521  22.885725 15.732746
526   2 0.0000  -5.742352  18.740904 22.911790
527   2 0.0000  -8.673183  14.596082 30.090834
528   2 0.0000 -11.604014  10.451261 37.269878
529   2 0.0000  20.635119   6.306442  1.374658
530   2 0.0000  17.704288   2.161621  8.553702
531   2 0.0000  14.773457  -1.983201 15.732746
532   2 0.0000  11.842626  -6.128022 22.911790
533   2 0.0000   8.911796 -10.272844 30.090834
534   2 0.0000   5.980965 -14.417665 37.269878
535   2 0.0000  17.704289  14.596084  1.374658
536   2 0.0000  14.773458  10.451263  8.553702
537   2 0.0000  11.842627   6.306441 15.732746
538   2 0.0000   8.911797   2.161620 22.911790
539   2 0.0000   5.980966  -1.983202 30.090834
540   2 0.0000   3.050135  -6.128023 37.269878
541   2 0.0000  14.773459  22.885726  1.374658
542   2 0.0000  11.842629  18.740905  8.553702
543   2 0.0000   8.911798  14.596083 15.732746
544   2 0.0000   5.980967  10.451262 22.911790
545   2 0.0000   3.050136   6.306440 30.090834
546   2 0.0000   0.119306   2.161619 37.269878
547   2 0.0000  11.842630  31.175368  1.374658
548   2 0.0000   8.911799  27.030547  8.553702
549   2 0.0000   5.980968  22.885725 15.732746
550   2 0.0000   3.050137  18.740904 22.911790
551   2 0.0000   0.119307  14.596082 30.090834
552   2 0.0000  -2.811524  10.451261 37.269878
553   2 0.0000  29.427608   6.306442  1.374658
554   2 0.0000  26.496777   2.161621  8.553702
555   2 0.0000  23.565947  -1.983201 15.732746
556   2 0.0000  20.635116  -6.128022 22.911790
557   2 0.0000  17.704285 -10.272844 30.090834
558   2 0.0000  14.773454 -14.417665 37.269878
559   2 0.0000  26.496779  14.596084  1.374658
560   2 0.0000  23.565948  10.451263  8.553702
561   2 0.0000  20.635117   6.306441 15.732746
562   2 0.0000  17.704286   2.161620 22.911790
563   2 0.0000  14.773455  -1.983202 30.090834
564   2 0.0000  11.842625  -6.128023 37.269878
565   2 0.0000  23.565949  22.885726  1.374658
566   2 0.0000  20.635118  18.740905  8.553702
567   2 0.0000  17.704287  14.596083 15.732746
568   2 0.0000  14.773457  10.451262 22.911790
569   2 0.0000  11.842626   6.306440 30.090834
570   2 0.0000   8.911795   2.161619 37.269878
571   2 0.0000  20.635119  31.175368  1.374658
572   2 0.0000  17.704288  27.030547  8.553702
573   2 0.0000  14.773458  22.885725 15.732746
574   2 0.0000  11.842627  18.740904 22.911790
575   2 0.0000   8.911796  14.596082 30.090834
576   2 0.0000   5.980965  10.451261 37.269878
577   2 0.0000   0.749659   3.441156  1.150593
578   2 0.0000  -2.181171  -0.703665  8.329637
579   2 0.0000  -5.112002  -4.848486 15.508681
580   2 0.0000  -8.042833  -8.993308 22.687725
581   2 0.0000 -10.973664 -13.138129 29.866769
582   2 0.0000 -13.904494 -17.282951 37.045813
583   2 0.0000  -2.181170  11.730798  1.150593
584   2 0.0000  -5.112001   7.585977  8.329637
585   2 0.0000  -8.042832   3.441156 15.508681
586   2 0.0000 -10.973662  -0.703666 22.687725
587   2 0.0000 -13.904493  -4.848487 29.866769
588   2 0.0000 -16.835324  -8.993309 37.045813
589   2 0.0000  -5.112000  20.020440  1.150593
590   2 0.0000  -8.042831  15.875619  8.329637
591   2 0.0000 -10.973661  11.730798 15.508681
592   2 0.0000 -13.904492   7.585976 22.687725
593   2 0.0000 -16.835323   3.441155 29.866769
594   2 0.0000 -19.766154  -0.703667 37.045813
595   2 0.0000  -8.042829  28.310082  1.150593
596   2 0.0000 -10.973660  24.165261  8.329637
597   2 0.0000 -13.904491  20.020440 15.508681
598   2 0.0000 -16.835322  15.875618 22.687725
599   2 0.0000 -19.766152  11.730797 29.866769
600   2 0.0000 -22.696983   7.585975 37.045813
601   2 0.0000   9.542149   3.441156  1.150593
602   2 0.0000   6.611318  -0.703665  8.329637
603   2 0.0000   3.680488  -4.848486 15.508681
604   2 0.0000   0.749657  -8.993308 22.687725
605   2 0.0000  -2.181174 -13.138129 29.866769
606   2 0.0000  -5.112005 -17.282951 37.045813
607   2 0.0000   6.611319  11.730798  1.150593
608   2 0.0000   3.680489   7.585977  8.329637
609   2 0.0000   0.749658   3.441156 15.508681
610   2 0.0000  -2.181173  -0.703666 22.687725
611   2 0.0000  -5.112004  -4.848487 29.866769
612   2 0.0000  -8.042834  -8.993309 37.045813
613   2 0.0000   3.680490  20.020440  1.150593
614   2 0.0000   0.749659  15.875619  8.329637
615   2 0.0000  -2.181172  11.730798 15.508681
616   2 0.0000  -5.112003   7.585976 22.687725
617   2 0.0000  -8.042833   3.441155 29.866769
618   2 0.0000 -10.973664  -0.703667 37.045813
619   2 0.0000   0.749660  28.310082  1.150593
620   2 0.0000  -2.181171  24.165261  8.329637
621   2 0.0000  -5.112001  20.020440 15.508681
622   2 0.0000  -8.042832  15.875618 22.687725
623   2 0.0000 -10.973663  11.730797 29.866769
624   2 0.0000 -13.904494   7.585975 37.045813
625   2 0.0000  18.334639   3.441156  1.150593
626   2 0.0000  15.403808  -0.703665  8.329637
627   2 0.0000  12.472977  -4.848486 15.508681
628   2 0.0000   9.542146  -8.993308 22.687725
629   2 0.0000   6.611316 -13.138129 29.866769
630   2 0.0000   3.680485 -17.282951 37.045813
631   2 0.0000  15.403809  11.730798  1.150593
632   2 0.0000  12.472978   7.585977  8.329637