Generated by pymatgen.io.lammps.data.LammpsData

3840  atoms

   3  atom types

0.000000 20.615773  xlo xhi
0.000000 19.577565  ylo yhi
0.000000 102.054782  zlo zhi
-10.309415 -15.497939 -3.213115  xy xz yz

Masses

1   6.94100
2  92.90638
3  15.99940

Atoms

1     1 0.0000  -0.003612  3.914532   1.251418
2     1 0.0000  -2.586602  3.379012  18.260548
3     1 0.0000  -5.169592  2.843493  35.269679
4     1 0.0000  -7.752582  2.307974  52.278809
5     1 0.0000 -10.335571  1.772455  69.287939
6     1 0.0000 -12.918561  1.236935  86.297070
7     1 0.0000  -2.580966  8.808923   1.251418
8     1 0.0000  -5.163955  8.273404  18.260548
9     1 0.0000  -7.746945  7.737884  35.269679
10    1 0.0000 -10.329935  7.202365  52.278809
11    1 0.0000 -12.912925  6.666846  69.287939
12    1 0.0000 -15.495915  6.131327  86.297070
13    1 0.0000  -5.158319 13.703314   1.251418
14    1 0.0000  -7.741309 13.167795  18.260548
15    1 0.0000 -10.324299 12.632276  35.269679
16    1 0.0000 -12.907289 12.096756  52.278809
17    1 0.0000 -15.490279 11.561237  69.287939
18    1 0.0000 -18.073269 11.025718  86.297070
19    1 0.0000  -7.735673 18.597705   1.251418
20    1 0.0000 -10.318663 18.062186  18.260548
21    1 0.0000 -12.901653 17.526667  35.269679
22    1 0.0000 -15.484643 16.991147  52.278809
23    1 0.0000 -18.067632 16.455628  69.287939
24    1 0.0000 -20.650622 15.920109  86.297070
25    1 0.0000   5.150331  3.914532   1.251418
26    1 0.0000   2.567341  3.379012  18.260548
27    1 0.0000  -0.015648  2.843493  35.269679
28    1 0.0000  -2.598638  2.307974  52.278809
29    1 0.0000  -5.181628  1.772455  69.287939
30    1 0.0000  -7.764618  1.236935  86.297070
31    1 0.0000   2.572978  8.808923   1.251418
32    1 0.0000  -0.010012  8.273404  18.260548
33    1 0.0000  -2.593002  7.737884  35.269679
34    1 0.0000  -5.175992  7.202365  52.278809
35    1 0.0000  -7.758982  6.666846  69.287939
36    1 0.0000 -10.341972  6.131327  86.297070
37    1 0.0000  -0.004376 13.703314   1.251418
38    1 0.0000  -2.587366 13.167795  18.260548
39    1 0.0000  -5.170356 12.632276  35.269679
40    1 0.0000  -7.753346 12.096756  52.278809
41    1 0.0000 -10.336335 11.561237  69.287939
42    1 0.0000 -12.919325 11.025718  86.297070
43    1 0.0000  -2.581730 18.597705   1.251418
44    1 0.0000  -5.164719 18.062186  18.260548
45    1 0.0000  -7.747709 17.526667  35.269679
46    1 0.0000 -10.330699 16.991147  52.278809
47    1 0.0000 -12.913689 16.455628  69.287939
48    1 0.0000 -15.496679 15.920109  86.297070
49    1 0.0000  10.304275  3.914532   1.251418
50    1 0.0000   7.721285  3.379012  18.260548
51    1 0.0000   5.138295  2.843493  35.269679
52    1 0.0000   2.555305  2.307974  52.278809
53    1 0.0000  -0.027685  1.772455  69.287939
54    1 0.0000  -2.610675  1.236935  86.297070
55    1 0.0000   7.726921  8.808923   1.251418
56    1 0.0000   5.143931  8.273404  18.260548
57    1 0.0000   2.560941  7.737884  35.269679
58    1 0.0000  -0.022049  7.202365  52.278809
59    1 0.0000  -2.605039  6.666846  69.287939
60    1 0.0000  -5.188028  6.131327  86.297070
61    1 0.0000   5.149567 13.703314   1.251418
62    1 0.0000   2.566577 13.167795  18.260548
63    1 0.0000  -0.016412 12.632276  35.269679
64    1 0.0000  -2.599402 12.096756  52.278809
65    1 0.0000  -5.182392 11.561237  69.287939
66    1 0.0000  -7.765382 11.025718  86.297070
67    1 0.0000   2.572214 18.597705   1.251418
68    1 0.0000  -0.010776 18.062186  18.260548
69    1 0.0000  -2.593766 17.526667  35.269679
70    1 0.0000  -5.176756 16.991147  52.278809
71    1 0.0000  -7.759746 16.455628  69.287939
72    1 0.0000 -10.342736 15.920109  86.297070
73    1 0.0000  15.458218  3.914532   1.251418
74    1 0.0000  12.875228  3.379012  18.260548
75    1 0.0000  10.292238  2.843493  35.269679
76    1 0.0000   7.709248  2.307974  52.278809
77    1 0.0000   5.126258  1.772455  69.287939
78    1 0.0000   2.543269  1.236935  86.297070
79    1 0.0000  12.880864  8.808923   1.251418
80    1 0.0000  10.297874  8.273404  18.260548
81    1 0.0000   7.714885  7.737884  35.269679
82    1 0.0000   5.131895  7.202365  52.278809
83    1 0.0000   2.548905  6.666846  69.287939
84    1 0.0000  -0.034085  6.131327  86.297070
85    1 0.0000  10.303511 13.703314   1.251418
86    1 0.0000   7.720521 13.167795  18.260548
87    1 0.0000   5.137531 12.632276  35.269679
88    1 0.0000   2.554541 12.096756  52.278809
89    1 0.0000  -0.028449 11.561237  69.287939
90    1 0.0000  -2.611439 11.025718  86.297070
91    1 0.0000   7.726157 18.597705   1.251418
92    1 0.0000   5.143167 18.062186  18.260548
93    1 0.0000   2.560177 17.526667  35.269679
94    1 0.0000  -0.022813 16.991147  52.278809
95    1 0.0000  -2.605803 16.455628  69.287939
96    1 0.0000  -5.188792 15.920109  86.297070
97    1 0.0000   2.569299  2.554636   5.500952
98    1 0.0000  -0.013691  2.019116  22.510082
99    1 0.0000  -2.596681  1.483597  39.519213
100   1 0.0000  -5.179671  0.948078  56.528343
101   1 0.0000  -7.762661  0.412559  73.537474
102   1 0.0000 -10.345651 -0.122961  90.546604
103   1 0.0000  -0.008055  7.449027   5.500952
104   1 0.0000  -2.591045  6.913508  22.510082
105   1 0.0000  -5.174035  6.377988  39.519213
106   1 0.0000  -7.757025  5.842469  56.528343
107   1 0.0000 -10.340015  5.306950  73.537474
108   1 0.0000 -12.923004  4.771431  90.546604
109   1 0.0000  -2.585409 12.343418   5.500952
110   1 0.0000  -5.168399 11.807899  22.510082
111   1 0.0000  -7.751388 11.272379  39.519213
112   1 0.0000 -10.334378 10.736860  56.528343
113   1 0.0000 -12.917368 10.201341  73.537474
114   1 0.0000 -15.500358  9.665822  90.546604
115   1 0.0000  -5.162762 17.237809   5.500952
116   1 0.0000  -7.745752 16.702290  22.510082
117   1 0.0000 -10.328742 16.166771  39.519213
118   1 0.0000 -12.911732 15.631251  56.528343
119   1 0.0000 -15.494722 15.095732  73.537474
120   1 0.0000 -18.077712 14.560213  90.546604
121   1 0.0000   7.723242  2.554636   5.500952
122   1 0.0000   5.140252  2.019116  22.510082
123   1 0.0000   2.557262  1.483597  39.519213
124   1 0.0000  -0.025728  0.948078  56.528343
125   1 0.0000  -2.608718  0.412559  73.537474
126   1 0.0000  -5.191708 -0.122961  90.546604
127   1 0.0000   5.145888  7.449027   5.500952
128   1 0.0000   2.562898  6.913508  22.510082
129   1 0.0000  -0.020092  6.377988  39.519213
130   1 0.0000  -2.603081  5.842469  56.528343
131   1 0.0000  -5.186071  5.306950  73.537474
132   1 0.0000  -7.769061  4.771431  90.546604
133   1 0.0000   2.568535 12.343418   5.500952
134   1 0.0000  -0.014455 11.807899  22.510082
135   1 0.0000  -2.597445 11.272379  39.519213
136   1 0.0000  -5.180435 10.736860  56.528343
137   1 0.0000  -7.763425 10.201341  73.537474
138   1 0.0000 -10.346415  9.665822  90.546604
139   1 0.0000  -0.008819 17.237809   5.500952
140   1 0.0000  -2.591809 16.702290  22.510082
141   1 0.0000  -5.174799 16.166771  39.519213
142   1 0.0000  -7.757789 15.631251  56.528343
143   1 0.0000 -10.340779 15.095732  73.537474
144   1 0.0000 -12.923768 14.560213  90.546604
145   1 0.0000  12.877185  2.554636   5.500952
146   1 0.0000  10.294195  2.019116  22.510082
147   1 0.0000   7.711205  1.483597  39.519213
148   1 0.0000   5.128216  0.948078  56.528343
149   1 0.0000   2.545226  0.412559  73.537474
150   1 0.0000  -0.037764 -0.122961  90.546604
151   1 0.0000  10.299831  7.449027   5.500952
152   1 0.0000   7.716842  6.913508  22.510082
153   1 0.0000   5.133852  6.377988  39.519213
154   1 0.0000   2.550862  5.842469  56.528343
155   1 0.0000  -0.032128  5.306950  73.537474
156   1 0.0000  -2.615118  4.771431  90.546604
157   1 0.0000   7.722478 12.343418   5.500952
158   1 0.0000   5.139488 11.807899  22.510082
159   1 0.0000   2.556498 11.272379  39.519213
160   1 0.0000  -0.026492 10.736860  56.528343
161   1 0.0000  -2.609482 10.201341  73.537474
162   1 0.0000  -5.192472  9.665822  90.546604
163   1 0.0000   5.145124 17.237809   5.500952
164   1 0.0000   2.562134 16.702290  22.510082
165   1 0.0000  -0.020856 16.166771  39.519213
166   1 0.0000  -2.603845 15.631251  56.528343
167   1 0.0000  -5.186835 15.095732  73.537474
168   1 0.0000  -7.769825 14.560213  90.546604
169   1 0.0000  18.031128  2.554636   5.500952
170   1 0.0000  15.448139  2.019116  22.510082
171   1 0.0000  12.865149  1.483597  39.519213
172   1 0.0000  10.282159  0.948078  56.528343
173   1 0.0000   7.699169  0.412559  73.537474
174   1 0.0000   5.116179 -0.122961  90.546604
175   1 0.0000  15.453775  7.449027   5.500952
176   1 0.0000  12.870785  6.913508  22.510082
177   1 0.0000  10.287795  6.377988  39.519213
178   1 0.0000   7.704805  5.842469  56.528343
179   1 0.0000   5.121815  5.306950  73.537474
180   1 0.0000   2.538825  4.771431  90.546604
181   1 0.0000  12.876421 12.343418   5.500952
182   1 0.0000  10.293431 11.807899  22.510082
183   1 0.0000   7.710441 11.272379  39.519213
184   1 0.0000   5.127452 10.736860  56.528343
185   1 0.0000   2.544462 10.201341  73.537474
186   1 0.0000  -0.038528  9.665822  90.546604
187   1 0.0000  10.299067 17.237809   5.500952
188   1 0.0000   7.716078 16.702290  22.510082
189   1 0.0000   5.133088 16.166771  39.519213
190   1 0.0000   2.550098 15.631251  56.528343
191   1 0.0000  -0.032892 15.095732  73.537474
192   1 0.0000  -2.615882 14.560213  90.546604
193   1 0.0000   0.003224  0.795818   3.383122
194   1 0.0000  -2.579766  0.260298  20.392252
195   1 0.0000  -5.162756 -0.275221  37.401382
196   1 0.0000  -7.745746 -0.810740  54.410513
197   1 0.0000 -10.328736 -1.346259  71.419643
198   1 0.0000 -12.911726 -1.881778  88.428773
199   1 0.0000  -2.574130  5.690209   3.383122
200   1 0.0000  -5.157120  5.154690  20.392252
201   1 0.0000  -7.740110  4.619170  37.401382
202   1 0.0000 -10.323099  4.083651  54.410513
203   1 0.0000 -12.906089  3.548132  71.419643
204   1 0.0000 -15.489079  3.012613  88.428773
205   1 0.0000  -5.151483 10.584600   3.383122
206   1 0.0000  -7.734473 10.049081  20.392252
207   1 0.0000 -10.317463  9.513562  37.401382
208   1 0.0000 -12.900453  8.978042  54.410513
209   1 0.0000 -15.483443  8.442523  71.419643
210   1 0.0000 -18.066433  7.907004  88.428773
211   1 0.0000  -7.728837 15.478991   3.383122
212   1 0.0000 -10.311827 14.943472  20.392252
213   1 0.0000 -12.894817 14.407953  37.401382
214   1 0.0000 -15.477807 13.872433  54.410513
215   1 0.0000 -18.060797 13.336914  71.419643
216   1 0.0000 -20.643786 12.801395  88.428773
217   1 0.0000   5.157167  0.795818   3.383122
218   1 0.0000   2.574177  0.260298  20.392252
219   1 0.0000  -0.008813 -0.275221  37.401382
220   1 0.0000  -2.591803 -0.810740  54.410513
221   1 0.0000  -5.174792 -1.346259  71.419643
222   1 0.0000  -7.757782 -1.881778  88.428773
223   1 0.0000   2.579813  5.690209   3.383122
224   1 0.0000  -0.003176  5.154690  20.392252
225   1 0.0000  -2.586166  4.619170  37.401382
226   1 0.0000  -5.169156  4.083651  54.410513
227   1 0.0000  -7.752146  3.548132  71.419643
228   1 0.0000 -10.335136  3.012613  88.428773
229   1 0.0000   0.002460 10.584600   3.383122
230   1 0.0000  -2.580530 10.049081  20.392252
231   1 0.0000  -5.163520  9.513562  37.401382
232   1 0.0000  -7.746510  8.978042  54.410513
233   1 0.0000 -10.329500  8.442523  71.419643
234   1 0.0000 -12.912490  7.907004  88.428773
235   1 0.0000  -2.574894 15.478991   3.383122
236   1 0.0000  -5.157884 14.943472  20.392252
237   1 0.0000  -7.740874 14.407953  37.401382
238   1 0.0000 -10.323863 13.872433  54.410513
239   1 0.0000 -12.906853 13.336914  71.419643
240   1 0.0000 -15.489843 12.801395  88.428773
241   1 0.0000  10.311110  0.795818   3.383122
242   1 0.0000   7.728121  0.260298  20.392252
243   1 0.0000   5.145131 -0.275221  37.401382
244   1 0.0000   2.562141 -0.810740  54.410513
245   1 0.0000  -0.020849 -1.346259  71.419643
246   1 0.0000  -2.603839 -1.881778  88.428773
247   1 0.0000   7.733757  5.690209   3.383122
248   1 0.0000   5.150767  5.154690  20.392252
249   1 0.0000   2.567777  4.619170  37.401382
250   1 0.0000  -0.015213  4.083651  54.410513
251   1 0.0000  -2.598203  3.548132  71.419643
252   1 0.0000  -5.181193  3.012613  88.428773
253   1 0.0000   5.156403 10.584600   3.383122
254   1 0.0000   2.573413 10.049081  20.392252
255   1 0.0000  -0.009577  9.513562  37.401382
256   1 0.0000  -2.592567  8.978042  54.410513
257   1 0.0000  -5.175556  8.442523  71.419643
258   1 0.0000  -7.758546  7.907004  88.428773
259   1 0.0000   2.579049 15.478991   3.383122
260   1 0.0000  -0.003940 14.943472  20.392252
261   1 0.0000  -2.586930 14.407953  37.401382
262   1 0.0000  -5.169920 13.872433  54.410513
263   1 0.0000  -7.752910 13.336914  71.419643
264   1 0.0000 -10.335900 12.801395  88.428773
265   1 0.0000  15.465054  0.795818   3.383122
266   1 0.0000  12.882064  0.260298  20.392252
267   1 0.0000  10.299074 -0.275221  37.401382
268   1 0.0000   7.716084 -0.810740  54.410513
269   1 0.0000   5.133094 -1.346259  71.419643
270   1 0.0000   2.550104 -1.881778  88.428773
271   1 0.0000  12.887700  5.690209   3.383122
272   1 0.0000  10.304710  5.154690  20.392252
273   1 0.0000   7.721720  4.619170  37.401382
274   1 0.0000   5.138730  4.083651  54.410513
275   1 0.0000   2.555741  3.548132  71.419643
276   1 0.0000  -0.027249  3.012613  88.428773
277   1 0.0000  10.310346 10.584600   3.383122
278   1 0.0000   7.727357 10.049081  20.392252
279   1 0.0000   5.144367  9.513562  37.401382
280   1 0.0000   2.561377  8.978042  54.410513
281   1 0.0000  -0.021613  8.442523  71.419643
282   1 0.0000  -2.604603  7.907004  88.428773
283   1 0.0000   7.732993 15.478991   3.383122
284   1 0.0000   5.150003 14.943472  20.392252
285   1 0.0000   2.567013 14.407953  37.401382
286   1 0.0000  -0.015977 13.872433  54.410513
287   1 0.0000  -2.598967 13.336914  71.419643
288   1 0.0000  -5.181957 12.801395  88.428773
289   1 0.0000  -0.008572  1.197396   9.753056
290   1 0.0000  -2.591562  0.661877  26.762186
291   1 0.0000  -5.174552  0.126358  43.771317
292   1 0.0000  -7.757542 -0.409161  60.780447
293   1 0.0000 -10.340532 -0.944681  77.789578
294   1 0.0000 -12.923521 -1.480200  94.798708
295   1 0.0000  -2.585926  6.091787   9.753056
296   1 0.0000  -5.168916  5.556268  26.762186
297   1 0.0000  -7.751905  5.020749  43.771317
298   1 0.0000 -10.334895  4.485230  60.780447
299   1 0.0000 -12.917885  3.949710  77.789578
300   1 0.0000 -15.500875  3.414191  94.798708
301   1 0.0000  -5.163279 10.986179   9.753056
302   1 0.0000  -7.746269 10.450659  26.762186
303   1 0.0000 -10.329259  9.915140  43.771317
304   1 0.0000 -12.912249  9.379621  60.780447
305   1 0.0000 -15.495239  8.844102  77.789578
306   1 0.0000 -18.078229  8.308582  94.798708
307   1 0.0000  -7.740633 15.880570   9.753056
308   1 0.0000 -10.323623 15.345051  26.762186
309   1 0.0000 -12.906613 14.809531  43.771317
310   1 0.0000 -15.489603 14.274012  60.780447
311   1 0.0000 -18.072593 13.738493  77.789578
312   1 0.0000 -20.655582 13.202974  94.798708
313   1 0.0000   5.145371  1.197396   9.753056
314   1 0.0000   2.562381  0.661877  26.762186
315   1 0.0000  -0.020609  0.126358  43.771317
316   1 0.0000  -2.603598 -0.409161  60.780447
317   1 0.0000  -5.186588 -0.944681  77.789578
318   1 0.0000  -7.769578 -1.480200  94.798708
319   1 0.0000   2.568018  6.091787   9.753056
320   1 0.0000  -0.014972  5.556268  26.762186
321   1 0.0000  -2.597962  5.020749  43.771317
322   1 0.0000  -5.180952  4.485230  60.780447
323   1 0.0000  -7.763942  3.949710  77.789578
324   1 0.0000 -10.346932  3.414191  94.798708
325   1 0.0000  -0.009336 10.986179   9.753056
326   1 0.0000  -2.592326 10.450659  26.762186
327   1 0.0000  -5.175316  9.915140  43.771317
328   1 0.0000  -7.758306  9.379621  60.780447
329   1 0.0000 -10.341296  8.844102  77.789578
330   1 0.0000 -12.924285  8.308582  94.798708
331   1 0.0000  -2.586690 15.880570   9.753056
332   1 0.0000  -5.169680 15.345051  26.762186
333   1 0.0000  -7.752669 14.809531  43.771317
334   1 0.0000 -10.335659 14.274012  60.780447
335   1 0.0000 -12.918649 13.738493  77.789578
336   1 0.0000 -15.501639 13.202974  94.798708
337   1 0.0000  10.299314  1.197396   9.753056
338   1 0.0000   7.716325  0.661877  26.762186
339   1 0.0000   5.133335  0.126358  43.771317
340   1 0.0000   2.550345 -0.409161  60.780447
341   1 0.0000  -0.032645 -0.944681  77.789578
342   1 0.0000  -2.615635 -1.480200  94.798708
343   1 0.0000   7.721961  6.091787   9.753056
344   1 0.0000   5.138971  5.556268  26.762186
345   1 0.0000   2.555981  5.020749  43.771317
346   1 0.0000  -0.027009  4.485230  60.780447
347   1 0.0000  -2.609999  3.949710  77.789578
348   1 0.0000  -5.192989  3.414191  94.798708
349   1 0.0000   5.144607 10.986179   9.753056
350   1 0.0000   2.561617 10.450659  26.762186
351   1 0.0000  -0.021373  9.915140  43.771317
352   1 0.0000  -2.604362  9.379621  60.780447
353   1 0.0000  -5.187352  8.844102  77.789578
354   1 0.0000  -7.770342  8.308582  94.798708
355   1 0.0000   2.567254 15.880570   9.753056
356   1 0.0000  -0.015736 15.345051  26.762186
357   1 0.0000  -2.598726 14.809531  43.771317
358   1 0.0000  -5.181716 14.274012  60.780447
359   1 0.0000  -7.764706 13.738493  77.789578
360   1 0.0000 -10.347696 13.202974  94.798708
361   1 0.0000  15.453258  1.197396   9.753056
362   1 0.0000  12.870268  0.661877  26.762186
363   1 0.0000  10.287278  0.126358  43.771317
364   1 0.0000   7.704288 -0.409161  60.780447
365   1 0.0000   5.121298 -0.944681  77.789578
366   1 0.0000   2.538308 -1.480200  94.798708
367   1 0.0000  12.875904  6.091787   9.753056
368   1 0.0000  10.292914  5.556268  26.762186
369   1 0.0000   7.709924  5.020749  43.771317
370   1 0.0000   5.126935  4.485230  60.780447
371   1 0.0000   2.543945  3.949710  77.789578
372   1 0.0000  -0.039045  3.414191  94.798708
373   1 0.0000  10.298550 10.986179   9.753056
374   1 0.0000   7.715561 10.450659  26.762186
375   1 0.0000   5.132571  9.915140  43.771317
376   1 0.0000   2.549581  9.379621  60.780447
377   1 0.0000  -0.033409  8.844102  77.789578
378   1 0.0000  -2.616399  8.308582  94.798708
379   1 0.0000   7.721197 15.880570   9.753056
380   1 0.0000   5.138207 15.345051  26.762186
381   1 0.0000   2.555217 14.809531  43.771317
382   1 0.0000  -0.027773 14.274012  60.780447
383   1 0.0000  -2.610763 13.738493  77.789578
384   1 0.0000  -5.193753 13.202974  94.798708
385   1 0.0000   0.004386  4.326813   7.630168
386   1 0.0000  -2.578604  3.791294  24.639298
387   1 0.0000  -5.161594  3.255774  41.648429
388   1 0.0000  -7.744584  2.720255  58.657559
389   1 0.0000 -10.327573  2.184736  75.666689
390   1 0.0000 -12.910563  1.649217  92.675820
391   1 0.0000  -2.572968  9.221204   7.630168
392   1 0.0000  -5.155957  8.685685  24.639298
393   1 0.0000  -7.738947  8.150165  41.648429
394   1 0.0000 -10.321937  7.614646  58.657559
395   1 0.0000 -12.904927  7.079127  75.666689
396   1 0.0000 -15.487917  6.543608  92.675820
397   1 0.0000  -5.150321 14.115595   7.630168
398   1 0.0000  -7.733311 13.580076  24.639298
399   1 0.0000 -10.316301 13.044557  41.648429
400   1 0.0000 -12.899291 12.509037  58.657559
401   1 0.0000 -15.482281 11.973518  75.666689
402   1 0.0000 -18.065271 11.437999  92.675820
403   1 0.0000  -7.727675 19.009986   7.630168
404   1 0.0000 -10.310665 18.474467  24.639298
405   1 0.0000 -12.893655 17.938948  41.648429
406   1 0.0000 -15.476644 17.403429  58.657559
407   1 0.0000 -18.059634 16.867909  75.666689
408   1 0.0000 -20.642624 16.332390  92.675820
409   1 0.0000   5.158329  4.326813   7.630168
410   1 0.0000   2.575340  3.791294  24.639298
411   1 0.0000  -0.007650  3.255774  41.648429
412   1 0.0000  -2.590640  2.720255  58.657559
413   1 0.0000  -5.173630  2.184736  75.666689
414   1 0.0000  -7.756620  1.649217  92.675820
415   1 0.0000   2.580976  9.221204   7.630168
416   1 0.0000  -0.002014  8.685685  24.639298
417   1 0.0000  -2.585004  8.150165  41.648429
418   1 0.0000  -5.167994  7.614646  58.657559
419   1 0.0000  -7.750984  7.079127  75.666689
420   1 0.0000 -10.333974  6.543608  92.675820
421   1 0.0000   0.003622 14.115595   7.630168
422   1 0.0000  -2.579368 13.580076  24.639298
423   1 0.0000  -5.162358 13.044557  41.648429
424   1 0.0000  -7.745348 12.509037  58.657559
425   1 0.0000 -10.328337 11.973518  75.666689
426   1 0.0000 -12.911327 11.437999  92.675820
427   1 0.0000  -2.573732 19.009986   7.630168
428   1 0.0000  -5.156721 18.474467  24.639298
429   1 0.0000  -7.739711 17.938948  41.648429
430   1 0.0000 -10.322701 17.403429  58.657559
431   1 0.0000 -12.905691 16.867909  75.666689
432   1 0.0000 -15.488681 16.332390  92.675820
433   1 0.0000  10.312273  4.326813   7.630168
434   1 0.0000   7.729283  3.791294  24.639298
435   1 0.0000   5.146293  3.255774  41.648429
436   1 0.0000   2.563303  2.720255  58.657559
437   1 0.0000  -0.019687  2.184736  75.666689
438   1 0.0000  -2.602677  1.649217  92.675820
439   1 0.0000   7.734919  9.221204   7.630168
440   1 0.0000   5.151929  8.685685  24.639298
441   1 0.0000   2.568939  8.150165  41.648429
442   1 0.0000  -0.014051  7.614646  58.657559
443   1 0.0000  -2.597040  7.079127  75.666689
444   1 0.0000  -5.180030  6.543608  92.675820
445   1 0.0000   5.157565 14.115595   7.630168
446   1 0.0000   2.574576 13.580076  24.639298
447   1 0.0000  -0.008414 13.044557  41.648429
448   1 0.0000  -2.591404 12.509037  58.657559
449   1 0.0000  -5.174394 11.973518  75.666689
450   1 0.0000  -7.757384 11.437999  92.675820
451   1 0.0000   2.580212 19.009986   7.630168
452   1 0.0000  -0.002778 18.474467  24.639298
453   1 0.0000  -2.585768 17.938948  41.648429
454   1 0.0000  -5.168758 17.403429  58.657559
455   1 0.0000  -7.751748 16.867909  75.666689
456   1 0.0000 -10.334738 16.332390  92.675820
457   1 0.0000  15.466216  4.326813   7.630168
458   1 0.0000  12.883226  3.791294  24.639298
459   1 0.0000  10.300236  3.255774  41.648429
460   1 0.0000   7.717246  2.720255  58.657559
461   1 0.0000   5.134256  2.184736  75.666689
462   1 0.0000   2.551267  1.649217  92.675820
463   1 0.0000  12.888862  9.221204   7.630168
464   1 0.0000  10.305872  8.685685  24.639298
465   1 0.0000   7.722883  8.150165  41.648429
466   1 0.0000   5.139893  7.614646  58.657559
467   1 0.0000   2.556903  7.079127  75.666689
468   1 0.0000  -0.026087  6.543608  92.675820
469   1 0.0000  10.311509 14.115595   7.630168
470   1 0.0000   7.728519 13.580076  24.639298
471   1 0.0000   5.145529 13.044557  41.648429
472   1 0.0000   2.562539 12.509037  58.657559
473   1 0.0000  -0.020451 11.973518  75.666689
474   1 0.0000  -2.603441 11.437999  92.675820
475   1 0.0000   7.734155 19.009986   7.630168
476   1 0.0000   5.151165 18.474467  24.639298
477   1 0.0000   2.568175 17.938948  41.648429
478   1 0.0000  -0.014815 17.403429  58.657559
479   1 0.0000  -2.597804 16.867909  75.666689
480   1 0.0000  -5.180794 16.332390  92.675820
481   1 0.0000   2.565560 -0.160922  14.004751
482   1 0.0000  -0.017430 -0.696441  31.013881
483   1 0.0000  -2.600420 -1.231960  48.023011
484   1 0.0000  -5.183410 -1.767479  65.032142
485   1 0.0000  -7.766400 -2.302999  82.041272
486   1 0.0000 -10.349390 -2.838518  99.050402
487   1 0.0000  -0.011794  4.733469  14.004751
488   1 0.0000  -2.594784  4.197950  31.013881
489   1 0.0000  -5.177774  3.662431  48.023011
490   1 0.0000  -7.760764  3.126912  65.032142
491   1 0.0000 -10.343754  2.591392  82.041272
492   1 0.0000 -12.926743  2.055873  99.050402
493   1 0.0000  -2.589148  9.627861  14.004751
494   1 0.0000  -5.172138  9.092341  31.013881
495   1 0.0000  -7.755127  8.556822  48.023011
496   1 0.0000 -10.338117  8.021303  65.032142
497   1 0.0000 -12.921107  7.485784  82.041272
498   1 0.0000 -15.504097  6.950264  99.050402
499   1 0.0000  -5.166501 14.522252  14.004751
500   1 0.0000  -7.749491 13.986732  31.013881
501   1 0.0000 -10.332481 13.451213  48.023011
502   1 0.0000 -12.915471 12.915694  65.032142
503   1 0.0000 -15.498461 12.380175  82.041272
504   1 0.0000 -18.081451 11.844655  99.050402
505   1 0.0000   7.719503 -0.160922  14.004751
506   1 0.0000   5.136513 -0.696441  31.013881
507   1 0.0000   2.553523 -1.231960  48.023011
508   1 0.0000  -0.029467 -1.767479  65.032142
509   1 0.0000  -2.612457 -2.302999  82.041272
510   1 0.0000  -5.195447 -2.838518  99.050402
511   1 0.0000   5.142149  4.733469  14.004751
512   1 0.0000   2.559159  4.197950  31.013881
513   1 0.0000  -0.023831  3.662431  48.023011
514   1 0.0000  -2.606820  3.126912  65.032142
515   1 0.0000  -5.189810  2.591392  82.041272
516   1 0.0000  -7.772800  2.055873  99.050402
517   1 0.0000   2.564796  9.627861  14.004751
518   1 0.0000  -0.018194  9.092341  31.013881
519   1 0.0000  -2.601184  8.556822  48.023011
520   1 0.0000  -5.184174  8.021303  65.032142
521   1 0.0000  -7.767164  7.485784  82.041272
522   1 0.0000 -10.350154  6.950264  99.050402
523   1 0.0000  -0.012558 14.522252  14.004751
524   1 0.0000  -2.595548 13.986732  31.013881
525   1 0.0000  -5.178538 13.451213  48.023011
526   1 0.0000  -7.761528 12.915694  65.032142
527   1 0.0000 -10.344518 12.380175  82.041272
528   1 0.0000 -12.927507 11.844655  99.050402
529   1 0.0000  12.873446 -0.160922  14.004751
530   1 0.0000  10.290456 -0.696441  31.013881
531   1 0.0000   7.707466 -1.231960  48.023011
532   1 0.0000   5.124477 -1.767479  65.032142
533   1 0.0000   2.541487 -2.302999  82.041272
534   1 0.0000  -0.041503 -2.838518  99.050402
535   1 0.0000  10.296093  4.733469  14.004751
536   1 0.0000   7.713103  4.197950  31.013881
537   1 0.0000   5.130113  3.662431  48.023011
538   1 0.0000   2.547123  3.126912  65.032142
539   1 0.0000  -0.035867  2.591392  82.041272
540   1 0.0000  -2.618857  2.055873  99.050402
541   1 0.0000   7.718739  9.627861  14.004751
542   1 0.0000   5.135749  9.092341  31.013881
543   1 0.0000   2.552759  8.556822  48.023011
544   1 0.0000  -0.030231  8.021303  65.032142
545   1 0.0000  -2.613221  7.485784  82.041272
546   1 0.0000  -5.196211  6.950264  99.050402
547   1 0.0000   5.141385 14.522252  14.004751
548   1 0.0000   2.558395 13.986732  31.013881
549   1 0.0000  -0.024595 13.451213  48.023011
550   1 0.0000  -2.607584 12.915694  65.032142
551   1 0.0000  -5.190574 12.380175  82.041272
552   1 0.0000  -7.773564 11.844655  99.050402
553   1 0.0000  18.027389 -0.160922  14.004751
554   1 0.0000  15.444400 -0.696441  31.013881
555   1 0.0000  12.861410 -1.231960  48.023011
556   1 0.0000  10.278420 -1.767479  65.032142
557   1 0.0000   7.695430 -2.302999  82.041272
558   1 0.0000   5.112440 -2.838518  99.050402
559   1 0.0000  15.450036  4.733469  14.004751
560   1 0.0000  12.867046  4.197950  31.013881
561   1 0.0000  10.284056  3.662431  48.023011
562   1 0.0000   7.701066  3.126912  65.032142
563   1 0.0000   5.118076  2.591392  82.041272
564   1 0.0000   2.535086  2.055873  99.050402
565   1 0.0000  12.872682  9.627861  14.004751
566   1 0.0000  10.289692  9.092341  31.013881
567   1 0.0000   7.706702  8.556822  48.023011
568   1 0.0000   5.123713  8.021303  65.032142
569   1 0.0000   2.540723  7.485784  82.041272
570   1 0.0000  -0.042267  6.950264  99.050402
571   1 0.0000  10.295329 14.522252  14.004751
572   1 0.0000   7.712339 13.986732  31.013881
573   1 0.0000   5.129349 13.451213  48.023011
574   1 0.0000   2.546359 12.915694  65.032142
575   1 0.0000  -0.036631 12.380175  82.041272
576   1 0.0000  -2.619621 11.844655  99.050402
577   1 0.0000  -2.580152  2.974268  11.887796
578   1 0.0000  -5.163142  2.438749  28.896927
579   1 0.0000  -7.746131  1.903230  45.906057
580   1 0.0000 -10.329121  1.367711  62.915187
581   1 0.0000 -12.912111  0.832191  79.924318
582   1 0.0000 -15.495101  0.296672  96.933448
583   1 0.0000  -5.157505  7.868659  11.887796
584   1 0.0000  -7.740495  7.333140  28.896927
585   1 0.0000 -10.323485  6.797621  45.906057
586   1 0.0000 -12.906475  6.262102  62.915187
587   1 0.0000 -15.489465  5.726582  79.924318
588   1 0.0000 -18.072455  5.191063  96.933448
589   1 0.0000  -7.734859 12.763051  11.887796
590   1 0.0000 -10.317849 12.227531  28.896927
591   1 0.0000 -12.900839 11.692012  45.906057
592   1 0.0000 -15.483829 11.156493  62.915187
593   1 0.0000 -18.066818 10.620974  79.924318
594   1 0.0000 -20.649808 10.085454  96.933448
595   1 0.0000 -10.312213 17.657442  11.887796
596   1 0.0000 -12.895202 17.121923  28.896927
597   1 0.0000 -15.478192 16.586403  45.906057
598   1 0.0000 -18.061182 16.050884  62.915187
599   1 0.0000 -20.644172 15.515365  79.924318
600   1 0.0000 -23.227162 14.979846  96.933448
601   1 0.0000   2.573792  2.974268  11.887796
602   1 0.0000  -0.009198  2.438749  28.896927
603   1 0.0000  -2.592188  1.903230  45.906057
604   1 0.0000  -5.175178  1.367711  62.915187
605   1 0.0000  -7.758168  0.832191  79.924318
606   1 0.0000 -10.341158  0.296672  96.933448
607   1 0.0000  -0.003562  7.868659  11.887796
608   1 0.0000  -2.586552  7.333140  28.896927
609   1 0.0000  -5.169542  6.797621  45.906057
610   1 0.0000  -7.752532  6.262102  62.915187
611   1 0.0000 -10.335521  5.726582  79.924318
612   1 0.0000 -12.918511  5.191063  96.933448
613   1 0.0000  -2.580916 12.763051  11.887796
614   1 0.0000  -5.163906 12.227531  28.896927
615   1 0.0000  -7.746895 11.692012  45.906057
616   1 0.0000 -10.329885 11.156493  62.915187
617   1 0.0000 -12.912875 10.620974  79.924318
618   1 0.0000 -15.495865 10.085454  96.933448
619   1 0.0000  -5.158269 17.657442  11.887796
620   1 0.0000  -7.741259 17.121923  28.896927
621   1 0.0000 -10.324249 16.586403  45.906057
622   1 0.0000 -12.907239 16.050884  62.915187
623   1 0.0000 -15.490229 15.515365  79.924318
624   1 0.0000 -18.073219 14.979846  96.933448
625   1 0.0000   7.727735  2.974268  11.887796
626   1 0.0000   5.144745  2.438749  28.896927
627   1 0.0000   2.561755  1.903230  45.906057
628   1 0.0000  -0.021235  1.367711  62.915187
629   1 0.0000  -2.604225  0.832191  79.924318
630   1 0.0000  -5.187214  0.296672  96.933448
631   1 0.0000   5.150381  7.868659  11.887796
632   1 0.0000   2.567391  7.333140  28.896927