Generated by pymatgen.io.lammps.data.LammpsData

640  atoms

  3  atom types

0.000000 10.307887  xlo xhi
0.000000 9.788782  ylo yhi
0.000000 68.036521  zlo zhi
-5.154707 -10.331959 -2.142077  xy xz yz

Masses

1   6.94100
2  92.90638
3  15.99940

Atoms

1    1 0.0000  -0.003612  3.914532  1.251418
2    1 0.0000  -2.586602  3.379012 18.260548
3    1 0.0000  -5.169592  2.843493 35.269679
4    1 0.0000  -7.752582  2.307974 52.278809
5    1 0.0000  -2.580966  8.808923  1.251418
6    1 0.0000  -5.163955  8.273404 18.260548
7    1 0.0000  -7.746945  7.737884 35.269679
8    1 0.0000 -10.329935  7.202365 52.278809
9    1 0.0000   5.150331  3.914532  1.251418
10   1 0.0000   2.567341  3.379012 18.260548
11   1 0.0000  -0.015648  2.843493 35.269679
12   1 0.0000  -2.598638  2.307974 52.278809
13   1 0.0000   2.572978  8.808923  1.251418
14   1 0.0000  -0.010012  8.273404 18.260548
15   1 0.0000  -2.593002  7.737884 35.269679
16   1 0.0000  -5.175992  7.202365 52.278809
17   1 0.0000   2.569299  2.554636  5.500952
18   1 0.0000  -0.013691  2.019116 22.510082
19   1 0.0000  -2.596681  1.483597 39.519213
20   1 0.0000  -5.179671  0.948078 56.528343
21   1 0.0000  -0.008055  7.449027  5.500952
22   1 0.0000  -2.591045  6.913508 22.510082
23   1 0.0000  -5.174035  6.377988 39.519213
24   1 0.0000  -7.757025  5.842469 56.528343
25   1 0.0000   7.723242  2.554636  5.500952
26   1 0.0000   5.140252  2.019116 22.510082
27   1 0.0000   2.557262  1.483597 39.519213
28   1 0.0000  -0.025728  0.948078 56.528343
29   1 0.0000   5.145888  7.449027  5.500952
30   1 0.0000   2.562898  6.913508 22.510082
31   1 0.0000  -0.020092  6.377988 39.519213
32   1 0.0000  -2.603081  5.842469 56.528343
33   1 0.0000   0.003224  0.795818  3.383122
34   1 0.0000  -2.579766  0.260298 20.392252
35   1 0.0000  -5.162756 -0.275221 37.401382
36   1 0.0000  -7.745746 -0.810740 54.410513
37   1 0.0000  -2.574130  5.690209  3.383122
38   1 0.0000  -5.157120  5.154690 20.392252
39   1 0.0000  -7.740110  4.619170 37.401382
40   1 0.0000 -10.323099  4.083651 54.410513
41   1 0.0000   5.157167  0.795818  3.383122
42   1 0.0000   2.574177  0.260298 20.392252
43   1 0.0000  -0.008813 -0.275221 37.401382
44   1 0.0000  -2.591803 -0.810740 54.410513
45   1 0.0000   2.579813  5.690209  3.383122
46   1 0.0000  -0.003176  5.154690 20.392252
47   1 0.0000  -2.586166  4.619170 37.401382
48   1 0.0000  -5.169156  4.083651 54.410513
49   1 0.0000  -0.008572  1.197396  9.753056
50   1 0.0000  -2.591562  0.661877 26.762186
51   1 0.0000  -5.174552  0.126358 43.771317
52   1 0.0000  -7.757542 -0.409161 60.780447
53   1 0.0000  -2.585926  6.091787  9.753056
54   1 0.0000  -5.168916  5.556268 26.762186
55   1 0.0000  -7.751905  5.020749 43.771317
56   1 0.0000 -10.334895  4.485230 60.780447
57   1 0.0000   5.145371  1.197396  9.753056
58   1 0.0000   2.562381  0.661877 26.762186
59   1 0.0000  -0.020609  0.126358 43.771317
60   1 0.0000  -2.603598 -0.409161 60.780447
61   1 0.0000   2.568018  6.091787  9.753056
62   1 0.0000  -0.014972  5.556268 26.762186
63   1 0.0000  -2.597962  5.020749 43.771317
64   1 0.0000  -5.180952  4.485230 60.780447
65   1 0.0000   0.004386  4.326813  7.630168
66   1 0.0000  -2.578604  3.791294 24.639298
67   1 0.0000  -5.161594  3.255774 41.648429
68   1 0.0000  -7.744584  2.720255 58.657559
69   1 0.0000  -2.572968  9.221204  7.630168
70   1 0.0000  -5.155957  8.685685 24.639298
71   1 0.0000  -7.738947  8.150165 41.648429
72   1 0.0000 -10.321937  7.614646 58.657559
73   1 0.0000   5.158329  4.326813  7.630168
74   1 0.0000   2.575340  3.791294 24.639298
75   1 0.0000  -0.007650  3.255774 41.648429
76   1 0.0000  -2.590640  2.720255 58.657559
77   1 0.0000   2.580976  9.221204  7.630168
78   1 0.0000  -0.002014  8.685685 24.639298
79   1 0.0000  -2.585004  8.150165 41.648429
80   1 0.0000  -5.167994  7.614646 58.657559
81   1 0.0000   2.565560 -0.160922 14.004751
82   1 0.0000  -0.017430 -0.696441 31.013881
83   1 0.0000  -2.600420 -1.231960 48.023011
84   1 0.0000  -5.183410 -1.767479 65.032142
85   1 0.0000  -0.011794  4.733469 14.004751
86   1 0.0000  -2.594784  4.197950 31.013881
87   1 0.0000  -5.177774  3.662431 48.023011
88   1 0.0000  -7.760764  3.126912 65.032142
89   1 0.0000   7.719503 -0.160922 14.004751
90   1 0.0000   5.136513 -0.696441 31.013881
91   1 0.0000   2.553523 -1.231960 48.023011
92   1 0.0000  -0.029467 -1.767479 65.032142
93   1 0.0000   5.142149  4.733469 14.004751
94   1 0.0000   2.559159  4.197950 31.013881
95   1 0.0000  -0.023831  3.662431 48.023011
96   1 0.0000  -2.606820  3.126912 65.032142
97   1 0.0000  -2.580152  2.974268 11.887796
98   1 0.0000  -5.163142  2.438749 28.896927
99   1 0.0000  -7.746131  1.903230 45.906057
100  1 0.0000 -10.329121  1.367711 62.915187
101  1 0.0000  -5.157505  7.868659 11.887796
102  1 0.0000  -7.740495  7.333140 28.896927
103  1 0.0000 -10.323485  6.797621 45.906057
104  1 0.0000 -12.906475  6.262102 62.915187
105  1 0.0000   2.573792  2.974268 11.887796
106  1 0.0000  -0.009198  2.438749 28.896927
107  1 0.0000  -2.592188  1.903230 45.906057
108  1 0.0000  -5.175178  1.367711 62.915187
109  1 0.0000  -0.003562  7.868659 11.887796
110  1 0.0000  -2.586552  7.333140 28.896927
111  1 0.0000  -5.169542  6.797621 45.906057
112  1 0.0000  -7.752532  6.262102 62.915187
113  1 0.0000   0.001608  1.612513 16.134199
114  1 0.0000  -2.581382  1.076993 33.143329
115  1 0.0000  -5.164372  0.541474 50.152460
116  1 0.0000  -7.747362  0.005955 67.161590
117  1 0.0000  -2.575746  6.506904 16.134199
118  1 0.0000  -5.158735  5.971385 33.143329
119  1 0.0000  -7.741725  5.435865 50.152460
120  1 0.0000 -10.324715  4.900346 67.161590
121  1 0.0000   5.155551  1.612513 16.134199
122  1 0.0000   2.572562  1.076993 33.143329
123  1 0.0000  -0.010428  0.541474 50.152460
124  1 0.0000  -2.593418  0.005955 67.161590
125  1 0.0000   2.578198  6.506904 16.134199
126  1 0.0000  -0.004792  5.971385 33.143329
127  1 0.0000  -2.587782  5.435865 50.152460
128  1 0.0000  -5.170772  4.900346 67.161590
129  2 0.0000   0.000646  0.155039  0.049994
130  2 0.0000  -2.582344 -0.380481 17.059124
131  2 0.0000  -5.165334 -0.916000 34.068255
132  2 0.0000  -7.748324 -1.451519 51.077385
133  2 0.0000  -2.576708  5.049430  0.049994
134  2 0.0000  -5.159698  4.513911 17.059124
135  2 0.0000  -7.742688  3.978391 34.068255
136  2 0.0000 -10.325678  3.442872 51.077385
137  2 0.0000   5.154589  0.155039  0.049994
138  2 0.0000   2.571599 -0.380481 17.059124
139  2 0.0000  -0.011391 -0.916000 34.068255
140  2 0.0000  -2.594381 -1.451519 51.077385
141  2 0.0000   2.577235  5.049430  0.049994
142  2 0.0000  -0.005755  4.513911 17.059124
143  2 0.0000  -2.588744  3.978391 34.068255
144  2 0.0000  -5.171734  3.442872 51.077385
145  2 0.0000  -0.001974  3.691471  4.300754
146  2 0.0000  -2.584964  3.155952 21.309884
147  2 0.0000  -5.167954  2.620433 38.319014
148  2 0.0000  -7.750944  2.084913 55.328145
149  2 0.0000  -2.579328  8.585862  4.300754
150  2 0.0000  -5.162317  8.050343 21.309884
151  2 0.0000  -7.745307  7.514824 38.319014
152  2 0.0000 -10.328297  6.979304 55.328145
153  2 0.0000   5.151969  3.691471  4.300754
154  2 0.0000   2.568980  3.155952 21.309884
155  2 0.0000  -0.014010  2.620433 38.319014
156  2 0.0000  -2.597000  2.084913 55.328145
157  2 0.0000   2.574616  8.585862  4.300754
158  2 0.0000  -0.008374  8.050343 21.309884
159  2 0.0000  -2.591364  7.514824 38.319014
160  2 0.0000  -5.174354  6.979304 55.328145
161  2 0.0000   2.577094  1.923159  2.174517
162  2 0.0000  -0.005895  1.387639 19.183648
163  2 0.0000  -2.588885  0.852120 36.192778
164  2 0.0000  -5.171875  0.316601 53.201908
165  2 0.0000  -0.000259  6.817550  2.174517
166  2 0.0000  -2.583249  6.282030 19.183648
167  2 0.0000  -5.166239  5.746511 36.192778
168  2 0.0000  -7.749229  5.210992 53.201908
169  2 0.0000   7.731038  1.923159  2.174517
170  2 0.0000   5.148048  1.387639 19.183648
171  2 0.0000   2.565058  0.852120 36.192778
172  2 0.0000  -0.017932  0.316601 53.201908
173  2 0.0000   5.153684  6.817550  2.174517
174  2 0.0000   2.570694  6.282030 19.183648
175  2 0.0000  -0.012296  5.746511 36.192778
176  2 0.0000  -2.595285  5.210992 53.201908
177  2 0.0000  -2.581622  2.332437  8.553586
178  2 0.0000  -5.164612  1.796918 25.562716
179  2 0.0000  -7.747602  1.261399 42.571846
180  2 0.0000 -10.330592  0.725880 59.580977
181  2 0.0000  -5.158976  7.226829  8.553586
182  2 0.0000  -7.741966  6.691309 25.562716
183  2 0.0000 -10.324956  6.155790 42.571846
184  2 0.0000 -12.907946  5.620271 59.580977
185  2 0.0000   2.572321  2.332437  8.553586
186  2 0.0000  -0.010669  1.796918 25.562716
187  2 0.0000  -2.593659  1.261399 42.571846
188  2 0.0000  -5.176649  0.725880 59.580977
189  2 0.0000  -0.005033  7.226829  8.553586
190  2 0.0000  -2.588023  6.691309 25.562716
191  2 0.0000  -5.171013  6.155790 42.571846
192  2 0.0000  -7.754002  5.620271 59.580977
193  2 0.0000  -0.001760  0.563352  6.425440
194  2 0.0000  -2.584749  0.027833 23.434570
195  2 0.0000  -5.167739 -0.507687 40.443701
196  2 0.0000  -7.750729 -1.043206 57.452831
197  2 0.0000  -2.579113  5.457743  6.425440
198  2 0.0000  -5.162103  4.922224 23.434570
199  2 0.0000  -7.745093  4.386704 40.443701
200  2 0.0000 -10.328083  3.851185 57.452831
201  2 0.0000   5.152184  0.563352  6.425440
202  2 0.0000   2.569194  0.027833 23.434570
203  2 0.0000  -0.013796 -0.507687 40.443701
204  2 0.0000  -2.596786 -1.043206 57.452831
205  2 0.0000   2.574830  5.457743  6.425440
206  2 0.0000  -0.008160  4.922224 23.434570
207  2 0.0000  -2.591150  4.386704 40.443701
208  2 0.0000  -5.174139  3.851185 57.452831
209  2 0.0000  -0.007656  0.977377 12.806512
210  2 0.0000  -2.590646  0.441858 29.815643
211  2 0.0000  -5.173636 -0.093661 46.824773
212  2 0.0000  -7.756626 -0.629180 63.833904
213  2 0.0000  -2.585010  5.871768 12.806512
214  2 0.0000  -5.168000  5.336249 29.815643
215  2 0.0000  -7.750990  4.800730 46.824773
216  2 0.0000 -10.333980  4.265211 63.833904
217  2 0.0000   5.146287  0.977377 12.806512
218  2 0.0000   2.563297  0.441858 29.815643
219  2 0.0000  -0.019693 -0.093661 46.824773
220  2 0.0000  -2.602683 -0.629180 63.833904
221  2 0.0000   2.568933  5.871768 12.806512
222  2 0.0000  -0.014057  5.336249 29.815643
223  2 0.0000  -2.597046  4.800730 46.824773
224  2 0.0000  -5.180036  4.265211 63.833904
225  2 0.0000  -0.006371  4.101870 10.678820
226  2 0.0000  -2.589360  3.566350 27.687950
227  2 0.0000  -5.172350  3.030831 44.697080
228  2 0.0000  -7.755340  2.495312 61.706211
229  2 0.0000  -2.583724  8.996261 10.678820
230  2 0.0000  -5.166714  8.460742 27.687950
231  2 0.0000  -7.749704  7.925222 44.697080
232  2 0.0000 -10.332694  7.389703 61.706211
233  2 0.0000   5.147573  4.101870 10.678820
234  2 0.0000   2.564583  3.566350 27.687950
235  2 0.0000  -0.018407  3.030831 44.697080
236  2 0.0000  -2.601397  2.495312 61.706211
237  2 0.0000   2.570219  8.996261 10.678820
238  2 0.0000  -0.012771  8.460742 27.687950
239  2 0.0000  -2.595761  7.925222 44.697080
240  2 0.0000  -5.178751  7.389703 61.706211
241  2 0.0000  -2.582886  2.744615 14.933737
242  2 0.0000  -5.165875  2.209095 31.942867
243  2 0.0000  -7.748865  1.673576 48.951998
244  2 0.0000 -10.331855  1.138057 65.961128
245  2 0.0000  -5.160239  7.639006 14.933737
246  2 0.0000  -7.743229  7.103486 31.942867
247  2 0.0000 -10.326219  6.567967 48.951998
248  2 0.0000 -12.909209  6.032448 65.961128
249  2 0.0000   2.571058  2.744615 14.933737
250  2 0.0000  -0.011932  2.209095 31.942867
251  2 0.0000  -2.594922  1.673576 48.951998
252  2 0.0000  -5.177912  1.138057 65.961128
253  2 0.0000  -0.006296  7.639006 14.933737
254  2 0.0000  -2.589286  7.103486 31.942867
255  2 0.0000  -5.172276  6.567967 48.951998
256  2 0.0000  -7.755266  6.032448 65.961128
257  3 0.0000   1.897736  0.106059  3.100353
258  3 0.0000  -0.685254 -0.429461 20.109484
259  3 0.0000  -3.268244 -0.964980 37.118614
260  3 0.0000  -5.851233 -1.500499 54.127744
261  3 0.0000  -0.679618  5.000450  3.100353
262  3 0.0000  -3.262607  4.464930 20.109484
263  3 0.0000  -5.845597  3.929411 37.118614
264  3 0.0000  -8.428587  3.393892 54.127744
265  3 0.0000   7.051679  0.106059  3.100353
266  3 0.0000   4.468690 -0.429461 20.109484
267  3 0.0000   1.885700 -0.964980 37.118614
268  3 0.0000  -0.697290 -1.500499 54.127744
269  3 0.0000   4.474326  5.000450  3.100353
270  3 0.0000   1.891336  4.464930 20.109484
271  3 0.0000  -0.691654  3.929411 37.118614
272  3 0.0000  -3.274644  3.393892 54.127744
273  3 0.0000   1.675363  0.940391  0.489858
274  3 0.0000  -0.907627  0.404872 17.498989
275  3 0.0000  -3.490617 -0.130647 34.508119
276  3 0.0000  -6.073607 -0.666166 51.517249
277  3 0.0000  -0.901991  5.834782  0.489858
278  3 0.0000  -3.484981  5.299263 17.498989
279  3 0.0000  -6.067971  4.763744 34.508119
280  3 0.0000  -8.650961  4.228225 51.517249
281  3 0.0000   6.829306  0.940391  0.489858
282  3 0.0000   4.246316  0.404872 17.498989
283  3 0.0000   1.663326 -0.130647 34.508119
284  3 0.0000  -0.919664 -0.666166 51.517249
285  3 0.0000   4.251952  5.834782  0.489858
286  3 0.0000   1.668962  5.299263 17.498989
287  3 0.0000  -0.914028  4.763744 34.508119
288  3 0.0000  -3.497017  4.228225 51.517249
289  3 0.0000   4.160243  0.582390  1.612472
290  3 0.0000   1.577253  0.046871 18.621602
291  3 0.0000  -1.005737 -0.488648 35.630732
292  3 0.0000  -3.588727 -1.024168 52.639863
293  3 0.0000   1.582889  5.476781  1.612472
294  3 0.0000  -1.000101  4.941262 18.621602
295  3 0.0000  -3.583091  4.405743 35.630732
296  3 0.0000  -6.166081  3.870223 52.639863
297  3 0.0000   9.314186  0.582390  1.612472
298  3 0.0000   6.731196  0.046871 18.621602
299  3 0.0000   4.148206 -0.488648 35.630732
300  3 0.0000   1.565216 -1.024168 52.639863
301  3 0.0000   6.736832  5.476781  1.612472
302  3 0.0000   4.153842  4.941262 18.621602
303  3 0.0000   1.570853  4.405743 35.630732
304  3 0.0000  -1.012137  3.870223 52.639863
305  3 0.0000   0.903041  2.707597  2.616142
306  3 0.0000  -1.679949  2.172078 19.625273
307  3 0.0000  -4.262939  1.636559 36.634403
308  3 0.0000  -6.845929  1.101040 53.643533
309  3 0.0000  -1.674313  7.601989  2.616142
310  3 0.0000  -4.257303  7.066469 19.625273
311  3 0.0000  -6.840293  6.530950 36.634403
312  3 0.0000  -9.423283  5.995431 53.643533
313  3 0.0000   6.056984  2.707597  2.616142
314  3 0.0000   3.473994  2.172078 19.625273
315  3 0.0000   0.891004  1.636559 36.634403
316  3 0.0000  -1.691986  1.101040 53.643533
317  3 0.0000   3.479630  7.601989  2.616142
318  3 0.0000   0.896641  7.066469 19.625273
319  3 0.0000  -1.686349  6.530950 36.634403
320  3 0.0000  -4.269339  5.995431 53.643533
321  3 0.0000  -1.582296  2.349874  3.737579
322  3 0.0000  -4.165285  1.814354 20.746709
323  3 0.0000  -6.748275  1.278835 37.755840
324  3 0.0000  -9.331265  0.743316 54.764970
325  3 0.0000  -4.159649  7.244265  3.737579
326  3 0.0000  -6.742639  6.708746 20.746709
327  3 0.0000  -9.325629  6.173226 37.755840
328  3 0.0000 -11.908619  5.637707 54.764970
329  3 0.0000   3.571648  2.349874  3.737579
330  3 0.0000   0.988658  1.814354 20.746709
331  3 0.0000  -1.594332  1.278835 37.755840
332  3 0.0000  -4.177322  0.743316 54.764970
333  3 0.0000   0.994294  7.244265  3.737579
334  3 0.0000  -1.588696  6.708746 20.746709
335  3 0.0000  -4.171686  6.173226 37.755840
336  3 0.0000  -6.754675  5.637707 54.764970
337  3 0.0000   1.896486  3.640647  7.350677
338  3 0.0000  -0.686504  3.105128 24.359808
339  3 0.0000  -3.269494  2.569608 41.368938
340  3 0.0000  -5.852484  2.034089 58.378068
341  3 0.0000  -0.680868  8.535038  7.350677
342  3 0.0000  -3.263858  7.999519 24.359808
343  3 0.0000  -5.846848  7.464000 41.368938
344  3 0.0000  -8.429838  6.928480 58.378068
345  3 0.0000   7.050429  3.640647  7.350677
346  3 0.0000   4.467439  3.105128 24.359808
347  3 0.0000   1.884449  2.569608 41.368938
348  3 0.0000  -0.698541  2.034089 58.378068
349  3 0.0000   4.473075  8.535038  7.350677
350  3 0.0000   1.890085  7.999519 24.359808
351  3 0.0000  -0.692904  7.464000 41.368938
352  3 0.0000  -3.275894  6.928480 58.378068
353  3 0.0000   3.256782  3.232551  0.975591
354  3 0.0000   0.673792  2.697031 17.984721
355  3 0.0000  -1.909198  2.161512 34.993851
356  3 0.0000  -4.492188  1.625993 52.002982
357  3 0.0000   0.679428  8.126942  0.975591
358  3 0.0000  -1.903562  7.591423 17.984721
359  3 0.0000  -4.486552  7.055903 34.993851
360  3 0.0000  -7.069542  6.520384 52.002982
361  3 0.0000   8.410725  3.232551  0.975591
362  3 0.0000   5.827735  2.697031 17.984721
363  3 0.0000   3.244745  2.161512 34.993851
364  3 0.0000   0.661755  1.625993 52.002982
365  3 0.0000   5.833371  8.126942  0.975591
366  3 0.0000   3.250381  7.591423 17.984721
367  3 0.0000   0.667392  7.055903 34.993851
368  3 0.0000  -1.915598  6.520384 52.002982
369  3 0.0000   1.674307  4.473659  4.742141
370  3 0.0000  -0.908683  3.938140 21.751271
371  3 0.0000  -3.491673  3.402621 38.760402
372  3 0.0000  -6.074662  2.867102 55.769532
373  3 0.0000  -0.903046  9.368050  4.742141
374  3 0.0000  -3.486036  8.832531 21.751271
375  3 0.0000  -6.069026  8.297012 38.760402
376  3 0.0000  -8.652016  7.761493 55.769532
377  3 0.0000   6.828251  4.473659  4.742141
378  3 0.0000   4.245261  3.938140 21.751271
379  3 0.0000   1.662271  3.402621 38.760402
380  3 0.0000  -0.920719  2.867102 55.769532
381  3 0.0000   4.250897  9.368050  4.742141
382  3 0.0000   1.667907  8.832531 21.751271
383  3 0.0000  -0.915083  8.297012 38.760402
384  3 0.0000  -3.498073  7.761493 55.769532
385  3 0.0000  -0.993682  4.118145  5.863909
386  3 0.0000  -3.576672  3.582625 22.873039
387  3 0.0000  -6.159662  3.047106 39.882170
388  3 0.0000  -8.742652  2.511587 56.891300
389  3 0.0000  -3.571036  9.012536  5.863909
390  3 0.0000  -6.154026  8.477016 22.873039
391  3 0.0000  -8.737016  7.941497 39.882170
392  3 0.0000 -11.320006  7.405978 56.891300
393  3 0.0000   4.160261  4.118145  5.863909
394  3 0.0000   1.577271  3.582625 22.873039
395  3 0.0000  -1.005719  3.047106 39.882170
396  3 0.0000  -3.588709  2.511587 56.891300
397  3 0.0000   1.582907  9.012536  5.863909
398  3 0.0000  -1.000083  8.477016 22.873039
399  3 0.0000  -3.583073  7.941497 39.882170
400  3 0.0000  -6.166062  7.405978 56.891300
401  3 0.0000  -1.674501  1.348836  6.868675
402  3 0.0000  -4.257491  0.813317 23.877805
403  3 0.0000  -6.840480  0.277797 40.886935
404  3 0.0000  -9.423470 -0.257722 57.896066
405  3 0.0000  -4.251854  6.243227  6.868675
406  3 0.0000  -6.834844  5.707708 23.877805
407  3 0.0000  -9.417834  5.172188 40.886935
408  3 0.0000 -12.000824  4.636669 57.896066
409  3 0.0000   3.479443  1.348836  6.868675
410  3 0.0000   0.896453  0.813317 23.877805
411  3 0.0000  -1.686537  0.277797 40.886935
412  3 0.0000  -4.269527 -0.257722 57.896066
413  3 0.0000   0.902089  6.243227  6.868675
414  3 0.0000  -1.680901  5.707708 23.877805
415  3 0.0000  -4.263891  5.172188 40.886935
416  3 0.0000  -6.846881  4.636669 57.896066
417  3 0.0000   0.993141  0.991511  7.988233
418  3 0.0000  -1.589849  0.455992 24.997364
419  3 0.0000  -4.172839 -0.079528 42.006494
420  3 0.0000  -6.755829 -0.615047 59.015625
421  3 0.0000  -1.584213  5.885902  7.988233
422  3 0.0000  -4.167203  5.350383 24.997364
423  3 0.0000  -6.750193  4.814864 42.006494
424  3 0.0000  -9.333182  4.279344 59.015625
425  3 0.0000   6.147084  0.991511  7.988233
426  3 0.0000   3.564094  0.455992 24.997364
427  3 0.0000   0.981104 -0.079528 42.006494
428  3 0.0000  -1.601886 -0.615047 59.015625
429  3 0.0000   3.569730  5.885902  7.988233
430  3 0.0000   0.986741  5.350383 24.997364
431  3 0.0000  -1.596249  4.814864 42.006494
432  3 0.0000  -4.179239  4.279344 59.015625
433  3 0.0000  -0.685913  2.286743 11.606382
434  3 0.0000  -3.268903  1.751223 28.615513
435  3 0.0000  -5.851893  1.215704 45.624643
436  3 0.0000  -8.434883  0.680185 62.633773
437  3 0.0000  -3.263267  7.181134 11.606382
438  3 0.0000  -5.846257  6.645614 28.615513
439  3 0.0000  -8.429247  6.110095 45.624643
440  3 0.0000 -11.012236  5.574576 62.633773
441  3 0.0000   4.468030  2.286743 11.606382
442  3 0.0000   1.885040  1.751223 28.615513
443  3 0.0000  -0.697950  1.215704 45.624643
444  3 0.0000  -3.280939  0.680185 62.633773
445  3 0.0000   1.890676  7.181134 11.606382
446  3 0.0000  -0.692313  6.645614 28.615513
447  3 0.0000  -3.275303  6.110095 45.624643
448  3 0.0000  -5.858293  5.574576 62.633773
449  3 0.0000   0.677165  1.871645  5.223988
450  3 0.0000  -1.905824  1.336126 22.233119
451  3 0.0000  -4.488814  0.800607 39.242249
452  3 0.0000  -7.071804  0.265088 56.251379
453  3 0.0000  -1.900188  6.766037  5.223988
454  3 0.0000  -4.483178  6.230517 22.233119
455  3 0.0000  -7.066168  5.694998 39.242249
456  3 0.0000  -9.649158  5.159479 56.251379
457  3 0.0000   5.831109  1.871645  5.223988
458  3 0.0000   3.248119  1.336126 22.233119
459  3 0.0000   0.665129  0.800607 39.242249
460  3 0.0000  -1.917861  0.265088 56.251379
461  3 0.0000   3.253755  6.766037  5.223988
462  3 0.0000   0.670765  6.230517 22.233119
463  3 0.0000  -1.912225  5.694998 39.242249
464  3 0.0000  -4.495215  5.159479 56.251379
465  3 0.0000  -0.906575  3.117598  8.995335
466  3 0.0000  -3.489565  2.582079 26.004465
467  3 0.0000  -6.072555  2.046559 43.013596
468  3 0.0000  -8.655545  1.511040 60.022726
469  3 0.0000  -3.483929  8.011989  8.995335
470  3 0.0000  -6.066918  7.476470 26.004465
471  3 0.0000  -8.649908  6.940951 43.013596
472  3 0.0000 -11.232898  6.405431 60.022726
473  3 0.0000   4.247368  3.117598  8.995335
474  3 0.0000   1.664379  2.582079 26.004465
475  3 0.0000  -0.918611  2.046559 43.013596
476  3 0.0000  -3.501601  1.511040 60.022726
477  3 0.0000   1.670015  8.011989  8.995335
478  3 0.0000  -0.912975  7.476470 26.004465
479  3 0.0000  -3.495965  6.940951 43.013596
480  3 0.0000  -6.078955  6.405431 60.022726
481  3 0.0000   1.577801  2.761069 10.115331
482  3 0.0000  -1.005189  2.225549 27.124462
483  3 0.0000  -3.588179  1.690030 44.133592
484  3 0.0000  -6.171169  1.154511 61.142722
485  3 0.0000  -0.999553  7.655460 10.115331
486  3 0.0000  -3.582543  7.119941 27.124462
487  3 0.0000  -6.165532  6.584421 44.133592
488  3 0.0000  -8.748522  6.048902 61.142722
489  3 0.0000   6.731744  2.761069 10.115331
490  3 0.0000   4.148754  2.225549 27.124462
491  3 0.0000   1.565764  1.690030 44.133592
492  3 0.0000  -1.017225  1.154511 61.142722
493  3 0.0000   4.154391  7.655460 10.115331
494  3 0.0000   1.571401  7.119941 27.124462
495  3 0.0000  -1.011589  6.584421 44.133592
496  3 0.0000  -3.594579  6.048902 61.142722
497  3 0.0000   0.898188 -0.006063 11.121573
498  3 0.0000  -1.684802 -0.541582 28.130704
499  3 0.0000  -4.267792 -1.077101 45.139834
500  3 0.0000  -6.850782 -1.612621 62.148964
501  3 0.0000  -1.679166  4.888328 11.121573
502  3 0.0000  -4.262156  4.352809 28.130704
503  3 0.0000  -6.845146  3.817290 45.139834
504  3 0.0000  -9.428136  3.281771 62.148964
505  3 0.0000   6.052131 -0.006063 11.121573
506  3 0.0000   3.469141 -0.541582 28.130704
507  3 0.0000   0.886151 -1.077101 45.139834
508  3 0.0000  -1.696839 -1.612621 62.148964
509  3 0.0000   3.474777  4.888328 11.121573
510  3 0.0000   0.891787  4.352809 28.130704
511  3 0.0000  -1.691203  3.817290 45.139834
512  3 0.0000  -4.274192  3.281771 62.148964
513  3 0.0000  -1.587676 -0.364675 12.241445
514  3 0.0000  -4.170666 -0.900194 29.250576
515  3 0.0000  -6.753656 -1.435713 46.259706
516  3 0.0000  -9.336645 -1.971232 63.268837
517  3 0.0000  -4.165029  4.529716 12.241445
518  3 0.0000  -6.748019  3.994197 29.250576
519  3 0.0000  -9.331009  3.458678 46.259706
520  3 0.0000 -11.913999  2.923159 63.268837
521  3 0.0000   3.566268 -0.364675 12.241445
522  3 0.0000   0.983278 -0.900194 29.250576
523  3 0.0000  -1.599712 -1.435713 46.259706
524  3 0.0000  -4.182702 -1.971232 63.268837
525  3 0.0000   0.988914  4.529716 12.241445
526  3 0.0000  -1.594076  3.994197 29.250576
527  3 0.0000  -4.177066  3.458678 46.259706
528  3 0.0000  -6.760056  2.923159 63.268837
529  3 0.0000   1.892374  0.927891 15.858228
530  3 0.0000  -0.690615  0.392372 32.867359
531  3 0.0000  -3.273605 -0.143147 49.876489
532  3 0.0000  -5.856595 -0.678667 66.885619
533  3 0.0000  -0.684979  5.822282 15.858228
534  3 0.0000  -3.267969  5.286763 32.867359
535  3 0.0000  -5.850959  4.751244 49.876489
536  3 0.0000  -8.433949  4.215725 66.885619
537  3 0.0000   7.046318  0.927891 15.858228
538  3 0.0000   4.463328  0.392372 32.867359
539  3 0.0000   1.880338 -0.143147 49.876489
540  3 0.0000  -0.702652 -0.678667 66.885619
541  3 0.0000   4.468964  5.822282 15.858228
542  3 0.0000   1.885974  5.286763 32.867359
543  3 0.0000  -0.697016  4.751244 49.876489
544  3 0.0000  -3.280005  4.215725 66.885619
545  3 0.0000   3.252096  0.515530  9.478274
546  3 0.0000   0.669106 -0.019990 26.487404
547  3 0.0000  -1.913884 -0.555509 43.496535
548  3 0.0000  -4.496874 -1.091028 60.505665
549  3 0.0000   0.674742  5.409921  9.478274
550  3 0.0000  -1.908248  4.874401 26.487404
551  3 0.0000  -4.491238  4.338882 43.496535
552  3 0.0000  -7.074227  3.803363 60.505665
553  3 0.0000   8.406039  0.515530  9.478274
554  3 0.0000   5.823049 -0.019990 26.487404
555  3 0.0000   3.240059 -0.555509 43.496535
556  3 0.0000   0.657070 -1.091028 60.505665
557  3 0.0000   5.828686  5.409921  9.478274
558  3 0.0000   3.245696  4.874401 26.487404
559  3 0.0000   0.662706  4.338882 43.496535
560  3 0.0000  -1.920284  3.803363 60.505665
561  3 0.0000   1.666620  1.761206 13.249068
562  3 0.0000  -0.916370  1.225686 30.258198
563  3 0.0000  -3.499360  0.690167 47.267328
564  3 0.0000  -6.082350  0.154648 64.276459
565  3 0.0000  -0.910734  6.655597 13.249068
566  3 0.0000  -3.493724  6.120078 30.258198
567  3 0.0000  -6.076714  5.584558 47.267328
568  3 0.0000  -8.659704  5.049039 64.276459
569  3 0.0000   6.820563  1.761206 13.249068
570  3 0.0000   4.237573  1.225686 30.258198
571  3 0.0000   1.654583  0.690167 47.267328
572  3 0.0000  -0.928407  0.154648 64.276459
573  3 0.0000   4.243209  6.655597 13.249068
574  3 0.0000   1.660219  6.120078 30.258198
575  3 0.0000  -0.922771  5.584558 47.267328
576  3 0.0000  -3.505760  5.049039 64.276459
577  3 0.0000  -1.001244  1.404593 14.369279
578  3 0.0000  -3.584234  0.869074 31.378410
579  3 0.0000  -6.167224  0.333555 48.387540
580  3 0.0000  -8.750214 -0.201965 65.396671
581  3 0.0000  -3.578598  6.298984 14.369279
582  3 0.0000  -6.161588  5.763465 31.378410
583  3 0.0000  -8.744577  5.227946 48.387540
584  3 0.0000 -11.327567  4.692427 65.396671
585  3 0.0000   4.152699  1.404593 14.369279
586  3 0.0000   1.569709  0.869074 31.378410
587  3 0.0000  -1.013280  0.333555 48.387540
588  3 0.0000  -3.596270 -0.201965 65.396671
589  3 0.0000   1.575346  6.298984 14.369279
590  3 0.0000  -1.007644  5.763465 31.378410
591  3 0.0000  -3.590634  5.227946 48.387540
592  3 0.0000  -6.173624  4.692427 65.396671
593  3 0.0000  -4.258345  3.528231 15.374878
594  3 0.0000  -6.841334  2.992712 32.384008
595  3 0.0000  -9.424324  2.457193 49.393139
596  3 0.0000 -12.007314  1.921674 66.402269
597  3 0.0000  -6.835698  8.422622 15.374878
598  3 0.0000  -9.418688  7.887103 32.384008
599  3 0.0000 -12.001678  7.351584 49.393139
600  3 0.0000 -14.584668  6.816065 66.402269
601  3 0.0000   0.895599  3.528231 15.374878
602  3 0.0000  -1.687391  2.992712 32.384008
603  3 0.0000  -4.270381  2.457193 49.393139
604  3 0.0000  -6.853371  1.921674 66.402269
605  3 0.0000  -1.681755  8.422622 15.374878
606  3 0.0000  -4.264745  7.887103 32.384008
607  3 0.0000  -6.847735  7.351584 49.393139
608  3 0.0000  -9.430725  6.816065 66.402269
609  3 0.0000  -1.588957  3.174025 16.495442
610  3 0.0000  -4.171946  2.638505 33.504572
611  3 0.0000  -6.754936  2.102986 50.513703
612  3 0.0000  -9.337926  1.567467 67.522833
613  3 0.0000  -4.166310  8.068416 16.495442
614  3 0.0000  -6.749300  7.532897 33.504572
615  3 0.0000  -9.332290  6.997377 50.513703
616  3 0.0000 -11.915280  6.461858 67.522833
617  3 0.0000   3.564987  3.174025 16.495442
618  3 0.0000   0.981997  2.638505 33.504572
619  3 0.0000  -1.600993  2.102986 50.513703
620  3 0.0000  -4.183983  1.567467 67.522833
621  3 0.0000   0.987633  8.068416 16.495442
622  3 0.0000  -1.595357  7.532897 33.504572
623  3 0.0000  -4.178347  6.997377 50.513703
624  3 0.0000  -6.761337  6.461858 67.522833
625  3 0.0000  -1.906526  4.053330 13.731102
626  3 0.0000  -4.489516  3.517811 30.740232
627  3 0.0000  -7.072506  2.982292 47.749362
628  3 0.0000  -9.655496  2.446772 64.758493
629  3 0.0000  -4.483880  8.947721 13.731102
630  3 0.0000  -7.066870  8.412202 30.740232
631  3 0.0000  -9.649860  7.876683 47.749362
632  3 0.0000 -12.232849  7.341163 64.758493
633  3 0.0000   3.247417  4.053330 13.731102
634  3 0.0000   0.664427  3.517811 30.740232
635  3 0.0000  -1.918563  2.982292 47.749362
636  3 0.0000  -4.501553  2.446772 64.758493
637  3 0.0000   0.670063  8.947721 13.731102
638  3 0.0000  -1.912926  8.412202 30.740232
639  3 0.0000  -4.495916  7.876683 47.749362
640  3 0.0000  -7.078906  7.341163 64.758493

