Generated by pymatgen.io.lammps.data.LammpsData

160  atoms

  3  atom types

0.000000 10.953695  xlo xhi
0.000000 9.070258  ylo yhi
0.000000 16.929544  zlo zhi
6.141162 12.282324 6.516806  xy xz yz

Masses

1    6.94100
2  180.94788
3   15.99940

Atoms

1    1 0.0000  3.290520  1.745897  1.198721
2    1 0.0000  6.361101  3.375099  5.431107
3    1 0.0000  9.431682  5.004300  9.663493
4    1 0.0000 12.502263  6.633502 13.895879
5    1 0.0000  6.361101  6.281026  1.198721
6    1 0.0000  9.431682  7.910228  5.431107
7    1 0.0000 12.502263  9.539429  9.663493
8    1 0.0000 15.572844 11.168631 13.895879
9    1 0.0000  8.767367  1.745897  1.198721
10   1 0.0000 11.837949  3.375099  5.431107
11   1 0.0000 14.908530  5.004300  9.663493
12   1 0.0000 17.979111  6.633502 13.895879
13   1 0.0000 11.837948  6.281026  1.198721
14   1 0.0000 14.908529  7.910228  5.431107
15   1 0.0000 17.979110  9.539429  9.663493
16   1 0.0000 21.049691 11.168631 13.895879
17   1 0.0000  9.099525  4.828063  3.314914
18   1 0.0000 12.170106  6.457264  7.547300
19   1 0.0000 15.240687  8.086466 11.779686
20   1 0.0000 18.311268  9.715667 16.012072
21   1 0.0000 12.170105  9.363192  3.314914
22   1 0.0000 15.240686 10.992393  7.547300
23   1 0.0000 18.311268 12.621595 11.779686
24   1 0.0000 21.381849 14.250796 16.012072
25   1 0.0000 14.576372  4.828063  3.314914
26   1 0.0000 17.646953  6.457264  7.547300
27   1 0.0000 20.717534  8.086466 11.779686
28   1 0.0000 23.788115  9.715667 16.012072
29   1 0.0000 17.646953  9.363192  3.314914
30   1 0.0000 20.717534 10.992393  7.547300
31   1 0.0000 23.788115 12.621595 11.779686
32   1 0.0000 26.858696 14.250796 16.012072
33   2 0.0000 11.611790  6.161030  4.230120
34   2 0.0000 14.682371  7.790232  8.462506
35   2 0.0000 17.752952  9.419433 12.694892
36   2 0.0000 20.823533 11.048635 16.927278
37   2 0.0000 14.682371 10.696159  4.230120
38   2 0.0000 17.752952 12.325361  8.462506
39   2 0.0000 20.823533 13.954562 12.694892
40   2 0.0000 23.894114 15.583764 16.927278
41   2 0.0000 17.088638  6.161030  4.230120
42   2 0.0000 20.159219  7.790232  8.462506
43   2 0.0000 23.229800  9.419433 12.694892
44   2 0.0000 26.300381 11.048635 16.927278
45   2 0.0000 20.159218 10.696159  4.230120
46   2 0.0000 23.229799 12.325361  8.462506
47   2 0.0000 26.300380 13.954562 12.694892
48   2 0.0000 29.370962 15.583764 16.927278
49   2 0.0000  5.802785  3.078865  2.113927
50   2 0.0000  8.873366  4.708067  6.346313
51   2 0.0000 11.943947  6.337268 10.578699
52   2 0.0000 15.014528  7.966470 14.811085
53   2 0.0000  8.873366  7.613994  2.113927
54   2 0.0000 11.943947  9.243196  6.346313
55   2 0.0000 15.014528 10.872397 10.578699
56   2 0.0000 18.085109 12.501599 14.811085
57   2 0.0000 11.279633  3.078865  2.113927
58   2 0.0000 14.350214  4.708067  6.346313
59   2 0.0000 17.420795  6.337268 10.578699
60   2 0.0000 20.491376  7.966470 14.811085
61   2 0.0000 14.350214  7.613994  2.113927
62   2 0.0000 17.420795  9.243196  6.346313
63   2 0.0000 20.491376 10.872397 10.578699
64   2 0.0000 23.561957 12.501599 14.811085
65   3 0.0000  6.715117  2.430040  3.668324
66   3 0.0000  9.785698  4.059242  7.900710
67   3 0.0000 12.856279  5.688443 12.133096
68   3 0.0000 15.926860  7.317645 16.365482
69   3 0.0000  9.785698  6.965169  3.668324
70   3 0.0000 12.856279  8.594370  7.900710
71   3 0.0000 15.926860 10.223572 12.133096
72   3 0.0000 18.997441 11.852773 16.365482
73   3 0.0000 12.191965  2.430040  3.668324
74   3 0.0000 15.262546  4.059242  7.900710
75   3 0.0000 18.333127  5.688443 12.133096
76   3 0.0000 21.403708  7.317645 16.365482
77   3 0.0000 15.262546  6.965169  3.668324
78   3 0.0000 18.333127  8.594370  7.900710
79   3 0.0000 21.403708 10.223572 12.133096
80   3 0.0000 24.474289 11.852773 16.365482
81   3 0.0000  5.444862  1.115923  1.552131
82   3 0.0000  8.515443  2.745125  5.784517
83   3 0.0000 11.586024  4.374326 10.016903
84   3 0.0000 14.656605  6.003528 14.249289
85   3 0.0000  8.515443  5.651052  1.552131
86   3 0.0000 11.586024  7.280254  5.784517
87   3 0.0000 14.656605  8.909455 10.016903
88   3 0.0000 17.727186 10.538657 14.249289
89   3 0.0000 10.921710  1.115923  1.552131
90   3 0.0000 13.992291  2.745125  5.784517
91   3 0.0000 17.062872  4.374326 10.016903
92   3 0.0000 20.133453  6.003528 14.249289
93   3 0.0000 13.992290  5.651052  1.552131
94   3 0.0000 17.062871  7.280254  5.784517
95   3 0.0000 20.133453  8.909455 10.016903
96   3 0.0000 23.204034 10.538657 14.249289
97   3 0.0000  3.976693  2.843450  3.066205
98   3 0.0000  7.047274  4.472652  7.298591
99   3 0.0000 10.117855  6.101853 11.530978
100  3 0.0000 13.188436  7.731055 15.763364
101  3 0.0000  7.047274  7.378579  3.066205
102  3 0.0000 10.117855  9.007781  7.298591
103  3 0.0000 13.188436 10.636982 11.530978
104  3 0.0000 16.259017 12.266184 15.763364
105  3 0.0000  9.453541  2.843450  3.066205
106  3 0.0000 12.524122  4.472652  7.298591
107  3 0.0000 15.594703  6.101853 11.530978
108  3 0.0000 18.665284  7.731055 15.763364
109  3 0.0000 12.524122  7.378579  3.066205
110  3 0.0000 15.594703  9.007781  7.298591
111  3 0.0000 18.665284 10.636982 11.530978
112  3 0.0000 21.735865 12.266184 15.763364
113  3 0.0000  4.584055  3.471780  0.483842
114  3 0.0000  7.654636  5.100981  4.716228
115  3 0.0000 10.725217  6.730183  8.948614
116  3 0.0000 13.795798  8.359384 13.181000
117  3 0.0000  7.654636  8.006909  0.483842
118  3 0.0000 10.725217  9.636110  4.716228
119  3 0.0000 13.795798 11.265312  8.948614
120  3 0.0000 16.866379 12.894513 13.181000
121  3 0.0000 10.060902  3.471780  0.483842
122  3 0.0000 13.131483  5.100981  4.716228
123  3 0.0000 16.202065  6.730183  8.948614
124  3 0.0000 19.272646  8.359384 13.181000
125  3 0.0000 13.131483  8.006909  0.483842
126  3 0.0000 16.202064  9.636110  4.716228
127  3 0.0000 19.272645 11.265312  8.948614
128  3 0.0000 22.343226 12.894513 13.181000
129  3 0.0000  7.322479  3.151710  0.950012
130  3 0.0000 10.393060  4.780912  5.182398
131  3 0.0000 13.463641  6.410113  9.414784
132  3 0.0000 16.534222  8.039315 13.647171
133  3 0.0000 10.393059  7.686839  0.950012
134  3 0.0000 13.463640  9.316041  5.182398
135  3 0.0000 16.534222 10.945242  9.414784
136  3 0.0000 19.604803 12.574444 13.647171
137  3 0.0000 12.799326  3.151710  0.950012
138  3 0.0000 15.869907  4.780912  5.182398
139  3 0.0000 18.940488  6.410113  9.414784
140  3 0.0000 22.011069  8.039315 13.647171
141  3 0.0000 15.869907  7.686839  0.950012
142  3 0.0000 18.940488  9.316041  5.182398
143  3 0.0000 22.011069 10.945242  9.414784
144  3 0.0000 25.081650 12.574444 13.647171
145  3 0.0000  5.777019  4.931568  2.600035
146  3 0.0000  8.847600  6.560770  6.832421
147  3 0.0000 11.918181  8.189971 11.064807
148  3 0.0000 14.988762  9.819173 15.297193
149  3 0.0000  8.847600  9.466697  2.600035
150  3 0.0000 11.918181 11.095899  6.832421
151  3 0.0000 14.988762 12.725100 11.064807
152  3 0.0000 18.059343 14.354302 15.297193
153  3 0.0000 11.253867  4.931568  2.600035
154  3 0.0000 14.324448  6.560770  6.832421
155  3 0.0000 17.395029  8.189971 11.064807
156  3 0.0000 20.465610  9.819173 15.297193
157  3 0.0000 14.324447  9.466697  2.600035
158  3 0.0000 17.395029 11.095899  6.832421
159  3 0.0000 20.465610 12.725100 11.064807
160  3 0.0000 23.536191 14.354302 15.297193

