Generated by pymatgen.io.lammps.data.LammpsData

960  atoms

  3  atom types

0.000000 21.907391  xlo xhi
0.000000 18.140516  ylo yhi
0.000000 25.394316  zlo zhi
12.282323 18.423486 9.775209  xy xz yz

Masses

1    6.94100
2  180.94788
3   15.99940

Atoms

1    1 0.0000  3.290520  1.745897  1.198721
2    1 0.0000  6.361101  3.375099  5.431107
3    1 0.0000  9.431682  5.004300  9.663493
4    1 0.0000 12.502263  6.633502 13.895879
5    1 0.0000 15.572844  8.262703 18.128265
6    1 0.0000 18.643425  9.891905 22.360651
7    1 0.0000  6.361101  6.281026  1.198721
8    1 0.0000  9.431682  7.910228  5.431107
9    1 0.0000 12.502263  9.539429  9.663493
10   1 0.0000 15.572844 11.168631 13.895879
11   1 0.0000 18.643425 12.797832 18.128265
12   1 0.0000 21.714006 14.427034 22.360651
13   1 0.0000  9.431681 10.816155  1.198721
14   1 0.0000 12.502263 12.445357  5.431107
15   1 0.0000 15.572844 14.074558  9.663493
16   1 0.0000 18.643425 15.703760 13.895879
17   1 0.0000 21.714006 17.332961 18.128265
18   1 0.0000 24.784587 18.962163 22.360651
19   1 0.0000 12.502262 15.351284  1.198721
20   1 0.0000 15.572843 16.980486  5.431107
21   1 0.0000 18.643424 18.609687  9.663493
22   1 0.0000 21.714005 20.238889 13.895879
23   1 0.0000 24.784587 21.868090 18.128265
24   1 0.0000 27.855168 23.497292 22.360651
25   1 0.0000  8.767367  1.745897  1.198721
26   1 0.0000 11.837949  3.375099  5.431107
27   1 0.0000 14.908530  5.004300  9.663493
28   1 0.0000 17.979111  6.633502 13.895879
29   1 0.0000 21.049692  8.262703 18.128265
30   1 0.0000 24.120273  9.891905 22.360651
31   1 0.0000 11.837948  6.281026  1.198721
32   1 0.0000 14.908529  7.910228  5.431107
33   1 0.0000 17.979110  9.539429  9.663493
34   1 0.0000 21.049691 11.168631 13.895879
35   1 0.0000 24.120273 12.797832 18.128265
36   1 0.0000 27.190854 14.427034 22.360651
37   1 0.0000 14.908529 10.816155  1.198721
38   1 0.0000 17.979110 12.445357  5.431107
39   1 0.0000 21.049691 14.074558  9.663493
40   1 0.0000 24.120272 15.703760 13.895879
41   1 0.0000 27.190853 17.332961 18.128265
42   1 0.0000 30.261434 18.962163 22.360651
43   1 0.0000 17.979110 15.351284  1.198721
44   1 0.0000 21.049691 16.980486  5.431107
45   1 0.0000 24.120272 18.609687  9.663493
46   1 0.0000 27.190853 20.238889 13.895879
47   1 0.0000 30.261434 21.868090 18.128265
48   1 0.0000 33.332015 23.497292 22.360651
49   1 0.0000 14.244215  1.745897  1.198721
50   1 0.0000 17.314796  3.375099  5.431107
51   1 0.0000 20.385377  5.004300  9.663493
52   1 0.0000 23.455958  6.633502 13.895879
53   1 0.0000 26.526539  8.262703 18.128265
54   1 0.0000 29.597120  9.891905 22.360651
55   1 0.0000 17.314796  6.281026  1.198721
56   1 0.0000 20.385377  7.910228  5.431107
57   1 0.0000 23.455958  9.539429  9.663493
58   1 0.0000 26.526539 11.168631 13.895879
59   1 0.0000 29.597120 12.797832 18.128265
60   1 0.0000 32.667701 14.427034 22.360651
61   1 0.0000 20.385377 10.816155  1.198721
62   1 0.0000 23.455958 12.445357  5.431107
63   1 0.0000 26.526539 14.074558  9.663493
64   1 0.0000 29.597120 15.703760 13.895879
65   1 0.0000 32.667701 17.332961 18.128265
66   1 0.0000 35.738282 18.962163 22.360651
67   1 0.0000 23.455958 15.351284  1.198721
68   1 0.0000 26.526539 16.980486  5.431107
69   1 0.0000 29.597120 18.609687  9.663493
70   1 0.0000 32.667701 20.238889 13.895879
71   1 0.0000 35.738282 21.868090 18.128265
72   1 0.0000 38.808863 23.497292 22.360651
73   1 0.0000 19.721063  1.745897  1.198721
74   1 0.0000 22.791644  3.375099  5.431107
75   1 0.0000 25.862225  5.004300  9.663493
76   1 0.0000 28.932806  6.633502 13.895879
77   1 0.0000 32.003387  8.262703 18.128265
78   1 0.0000 35.073968  9.891905 22.360651
79   1 0.0000 22.791644  6.281026  1.198721
80   1 0.0000 25.862225  7.910228  5.431107
81   1 0.0000 28.932806  9.539429  9.663493
82   1 0.0000 32.003387 11.168631 13.895879
83   1 0.0000 35.073968 12.797832 18.128265
84   1 0.0000 38.144549 14.427034 22.360651
85   1 0.0000 25.862224 10.816155  1.198721
86   1 0.0000 28.932806 12.445357  5.431107
87   1 0.0000 32.003387 14.074558  9.663493
88   1 0.0000 35.073968 15.703760 13.895879
89   1 0.0000 38.144549 17.332961 18.128265
90   1 0.0000 41.215130 18.962163 22.360651
91   1 0.0000 28.932805 15.351284  1.198721
92   1 0.0000 32.003386 16.980486  5.431107
93   1 0.0000 35.073967 18.609687  9.663493
94   1 0.0000 38.144548 20.238889 13.895879
95   1 0.0000 41.215130 21.868090 18.128265
96   1 0.0000 44.285711 23.497292 22.360651
97   1 0.0000  9.099525  4.828063  3.314914
98   1 0.0000 12.170106  6.457264  7.547300
99   1 0.0000 15.240687  8.086466 11.779686
100  1 0.0000 18.311268  9.715667 16.012072
101  1 0.0000 21.381849 11.344869 20.244458
102  1 0.0000 24.452430 12.974070 24.476844
103  1 0.0000 12.170105  9.363192  3.314914
104  1 0.0000 15.240686 10.992393  7.547300
105  1 0.0000 18.311268 12.621595 11.779686
106  1 0.0000 21.381849 14.250796 16.012072
107  1 0.0000 24.452430 15.879998 20.244458
108  1 0.0000 27.523011 17.509199 24.476844
109  1 0.0000 15.240686 13.898320  3.314914
110  1 0.0000 18.311267 15.527522  7.547300
111  1 0.0000 21.381848 17.156723 11.779686
112  1 0.0000 24.452429 18.785925 16.012072
113  1 0.0000 27.523010 20.415126 20.244458
114  1 0.0000 30.593592 22.044328 24.476844
115  1 0.0000 18.311267 18.433449  3.314914
116  1 0.0000 21.381848 20.062651  7.547300
117  1 0.0000 24.452429 21.691852 11.779686
118  1 0.0000 27.523010 23.321054 16.012072
119  1 0.0000 30.593591 24.950255 20.244458
120  1 0.0000 33.664172 26.579457 24.476844
121  1 0.0000 14.576372  4.828063  3.314914
122  1 0.0000 17.646953  6.457264  7.547300
123  1 0.0000 20.717534  8.086466 11.779686
124  1 0.0000 23.788115  9.715667 16.012072
125  1 0.0000 26.858696 11.344869 20.244458
126  1 0.0000 29.929278 12.974070 24.476844
127  1 0.0000 17.646953  9.363192  3.314914
128  1 0.0000 20.717534 10.992393  7.547300
129  1 0.0000 23.788115 12.621595 11.779686
130  1 0.0000 26.858696 14.250796 16.012072
131  1 0.0000 29.929277 15.879998 20.244458
132  1 0.0000 32.999858 17.509199 24.476844
133  1 0.0000 20.717534 13.898320  3.314914
134  1 0.0000 23.788115 15.527522  7.547300
135  1 0.0000 26.858696 17.156723 11.779686
136  1 0.0000 29.929277 18.785925 16.012072
137  1 0.0000 32.999858 20.415126 20.244458
138  1 0.0000 36.070439 22.044328 24.476844
139  1 0.0000 23.788115 18.433449  3.314914
140  1 0.0000 26.858696 20.062651  7.547300
141  1 0.0000 29.929277 21.691852 11.779686
142  1 0.0000 32.999858 23.321054 16.012072
143  1 0.0000 36.070439 24.950255 20.244458
144  1 0.0000 39.141020 26.579457 24.476844
145  1 0.0000 20.053220  4.828063  3.314914
146  1 0.0000 23.123801  6.457264  7.547300
147  1 0.0000 26.194382  8.086466 11.779686
148  1 0.0000 29.264963  9.715667 16.012072
149  1 0.0000 32.335544 11.344869 20.244458
150  1 0.0000 35.406125 12.974070 24.476844
151  1 0.0000 23.123801  9.363192  3.314914
152  1 0.0000 26.194382 10.992393  7.547300
153  1 0.0000 29.264963 12.621595 11.779686
154  1 0.0000 32.335544 14.250796 16.012072
155  1 0.0000 35.406125 15.879998 20.244458
156  1 0.0000 38.476706 17.509199 24.476844
157  1 0.0000 26.194382 13.898320  3.314914
158  1 0.0000 29.264963 15.527522  7.547300
159  1 0.0000 32.335544 17.156723 11.779686
160  1 0.0000 35.406125 18.785925 16.012072
161  1 0.0000 38.476706 20.415126 20.244458
162  1 0.0000 41.547287 22.044328 24.476844
163  1 0.0000 29.264962 18.433449  3.314914
164  1 0.0000 32.335543 20.062651  7.547300
165  1 0.0000 35.406124 21.691852 11.779686
166  1 0.0000 38.476706 23.321054 16.012072
167  1 0.0000 41.547287 24.950255 20.244458
168  1 0.0000 44.617868 26.579457 24.476844
169  1 0.0000 25.530068  4.828063  3.314914
170  1 0.0000 28.600649  6.457264  7.547300
171  1 0.0000 31.671230  8.086466 11.779686
172  1 0.0000 34.741811  9.715667 16.012072
173  1 0.0000 37.812392 11.344869 20.244458
174  1 0.0000 40.882973 12.974070 24.476844
175  1 0.0000 28.600648  9.363192  3.314914
176  1 0.0000 31.671229 10.992393  7.547300
177  1 0.0000 34.741811 12.621595 11.779686
178  1 0.0000 37.812392 14.250796 16.012072
179  1 0.0000 40.882973 15.879998 20.244458
180  1 0.0000 43.953554 17.509199 24.476844
181  1 0.0000 31.671229 13.898320  3.314914
182  1 0.0000 34.741810 15.527522  7.547300
183  1 0.0000 37.812391 17.156723 11.779686
184  1 0.0000 40.882972 18.785925 16.012072
185  1 0.0000 43.953553 20.415126 20.244458
186  1 0.0000 47.024135 22.044328 24.476844
187  1 0.0000 34.741810 18.433449  3.314914
188  1 0.0000 37.812391 20.062651  7.547300
189  1 0.0000 40.882972 21.691852 11.779686
190  1 0.0000 43.953553 23.321054 16.012072
191  1 0.0000 47.024134 24.950255 20.244458
192  1 0.0000 50.094715 26.579457 24.476844
193  2 0.0000 11.611790  6.161030  4.230120
194  2 0.0000 14.682371  7.790232  8.462506
195  2 0.0000 17.752952  9.419433 12.694892
196  2 0.0000 20.823533 11.048635 16.927278
197  2 0.0000 23.894114 12.677836 21.159664
198  2 0.0000 26.964695 14.307038 25.392050
199  2 0.0000 14.682371 10.696159  4.230120
200  2 0.0000 17.752952 12.325361  8.462506
201  2 0.0000 20.823533 13.954562 12.694892
202  2 0.0000 23.894114 15.583764 16.927278
203  2 0.0000 26.964695 17.212965 21.159664
204  2 0.0000 30.035276 18.842167 25.392050
205  2 0.0000 17.752951 15.231288  4.230120
206  2 0.0000 20.823533 16.860490  8.462506
207  2 0.0000 23.894114 18.489691 12.694892
208  2 0.0000 26.964695 20.118893 16.927278
209  2 0.0000 30.035276 21.748094 21.159664
210  2 0.0000 33.105857 23.377296 25.392050
211  2 0.0000 20.823532 19.766417  4.230120
212  2 0.0000 23.894113 21.395619  8.462506
213  2 0.0000 26.964694 23.024820 12.694892
214  2 0.0000 30.035275 24.654022 16.927278
215  2 0.0000 33.105857 26.283223 21.159664
216  2 0.0000 36.176438 27.912425 25.392050
217  2 0.0000 17.088638  6.161030  4.230120
218  2 0.0000 20.159219  7.790232  8.462506
219  2 0.0000 23.229800  9.419433 12.694892
220  2 0.0000 26.300381 11.048635 16.927278
221  2 0.0000 29.370962 12.677836 21.159664
222  2 0.0000 32.441543 14.307038 25.392050
223  2 0.0000 20.159218 10.696159  4.230120
224  2 0.0000 23.229799 12.325361  8.462506
225  2 0.0000 26.300380 13.954562 12.694892
226  2 0.0000 29.370962 15.583764 16.927278
227  2 0.0000 32.441543 17.212965 21.159664
228  2 0.0000 35.512124 18.842167 25.392050
229  2 0.0000 23.229799 15.231288  4.230120
230  2 0.0000 26.300380 16.860490  8.462506
231  2 0.0000 29.370961 18.489691 12.694892
232  2 0.0000 32.441542 20.118893 16.927278
233  2 0.0000 35.512123 21.748094 21.159664
234  2 0.0000 38.582704 23.377296 25.392050
235  2 0.0000 26.300380 19.766417  4.230120
236  2 0.0000 29.370961 21.395619  8.462506
237  2 0.0000 32.441542 23.024820 12.694892
238  2 0.0000 35.512123 24.654022 16.927278
239  2 0.0000 38.582704 26.283223 21.159664
240  2 0.0000 41.653285 27.912425 25.392050
241  2 0.0000 22.565485  6.161030  4.230120
242  2 0.0000 25.636066  7.790232  8.462506
243  2 0.0000 28.706647  9.419433 12.694892
244  2 0.0000 31.777228 11.048635 16.927278
245  2 0.0000 34.847809 12.677836 21.159664
246  2 0.0000 37.918390 14.307038 25.392050
247  2 0.0000 25.636066 10.696159  4.230120
248  2 0.0000 28.706647 12.325361  8.462506
249  2 0.0000 31.777228 13.954562 12.694892
250  2 0.0000 34.847809 15.583764 16.927278
251  2 0.0000 37.918390 17.212965 21.159664
252  2 0.0000 40.988971 18.842167 25.392050
253  2 0.0000 28.706647 15.231288  4.230120
254  2 0.0000 31.777228 16.860490  8.462506
255  2 0.0000 34.847809 18.489691 12.694892
256  2 0.0000 37.918390 20.118893 16.927278
257  2 0.0000 40.988971 21.748094 21.159664
258  2 0.0000 44.059552 23.377296 25.392050
259  2 0.0000 31.777228 19.766417  4.230120
260  2 0.0000 34.847809 21.395619  8.462506
261  2 0.0000 37.918390 23.024820 12.694892
262  2 0.0000 40.988971 24.654022 16.927278
263  2 0.0000 44.059552 26.283223 21.159664
264  2 0.0000 47.130133 27.912425 25.392050
265  2 0.0000 28.042333  6.161030  4.230120
266  2 0.0000 31.112914  7.790232  8.462506
267  2 0.0000 34.183495  9.419433 12.694892
268  2 0.0000 37.254076 11.048635 16.927278
269  2 0.0000 40.324657 12.677836 21.159664
270  2 0.0000 43.395238 14.307038 25.392050
271  2 0.0000 31.112914 10.696159  4.230120
272  2 0.0000 34.183495 12.325361  8.462506
273  2 0.0000 37.254076 13.954562 12.694892
274  2 0.0000 40.324657 15.583764 16.927278
275  2 0.0000 43.395238 17.212965 21.159664
276  2 0.0000 46.465819 18.842167 25.392050
277  2 0.0000 34.183494 15.231288  4.230120
278  2 0.0000 37.254076 16.860490  8.462506
279  2 0.0000 40.324657 18.489691 12.694892
280  2 0.0000 43.395238 20.118893 16.927278
281  2 0.0000 46.465819 21.748094 21.159664
282  2 0.0000 49.536400 23.377296 25.392050
283  2 0.0000 37.254075 19.766417  4.230120
284  2 0.0000 40.324656 21.395619  8.462506
285  2 0.0000 43.395237 23.024820 12.694892
286  2 0.0000 46.465818 24.654022 16.927278
287  2 0.0000 49.536400 26.283223 21.159664
288  2 0.0000 52.606981 27.912425 25.392050
289  2 0.0000  5.802785  3.078865  2.113927
290  2 0.0000  8.873366  4.708067  6.346313
291  2 0.0000 11.943947  6.337268 10.578699
292  2 0.0000 15.014528  7.966470 14.811085
293  2 0.0000 18.085109  9.595671 19.043471
294  2 0.0000 21.155690 11.224873 23.275857
295  2 0.0000  8.873366  7.613994  2.113927
296  2 0.0000 11.943947  9.243196  6.346313
297  2 0.0000 15.014528 10.872397 10.578699
298  2 0.0000 18.085109 12.501599 14.811085
299  2 0.0000 21.155690 14.130800 19.043471
300  2 0.0000 24.226271 15.760002 23.275857
301  2 0.0000 11.943947 12.149123  2.113927
302  2 0.0000 15.014528 13.778325  6.346313
303  2 0.0000 18.085109 15.407526 10.578699
304  2 0.0000 21.155690 17.036728 14.811085
305  2 0.0000 24.226271 18.665929 19.043471
306  2 0.0000 27.296852 20.295131 23.275857
307  2 0.0000 15.014528 16.684252  2.113927
308  2 0.0000 18.085109 18.313454  6.346313
309  2 0.0000 21.155690 19.942655 10.578699
310  2 0.0000 24.226271 21.571857 14.811085
311  2 0.0000 27.296852 23.201058 19.043471
312  2 0.0000 30.367433 24.830260 23.275857
313  2 0.0000 11.279633  3.078865  2.113927
314  2 0.0000 14.350214  4.708067  6.346313
315  2 0.0000 17.420795  6.337268 10.578699
316  2 0.0000 20.491376  7.966470 14.811085
317  2 0.0000 23.561957  9.595671 19.043471
318  2 0.0000 26.632538 11.224873 23.275857
319  2 0.0000 14.350214  7.613994  2.113927
320  2 0.0000 17.420795  9.243196  6.346313
321  2 0.0000 20.491376 10.872397 10.578699
322  2 0.0000 23.561957 12.501599 14.811085
323  2 0.0000 26.632538 14.130800 19.043471
324  2 0.0000 29.703119 15.760002 23.275857
325  2 0.0000 17.420794 12.149123  2.113927
326  2 0.0000 20.491375 13.778325  6.346313
327  2 0.0000 23.561956 15.407526 10.578699
328  2 0.0000 26.632538 17.036728 14.811085
329  2 0.0000 29.703119 18.665929 19.043471
330  2 0.0000 32.773700 20.295131 23.275857
331  2 0.0000 20.491375 16.684252  2.113927
332  2 0.0000 23.561956 18.313454  6.346313
333  2 0.0000 26.632537 19.942655 10.578699
334  2 0.0000 29.703118 21.571857 14.811085
335  2 0.0000 32.773699 23.201058 19.043471
336  2 0.0000 35.844281 24.830260 23.275857
337  2 0.0000 16.756480  3.078865  2.113927
338  2 0.0000 19.827061  4.708067  6.346313
339  2 0.0000 22.897643  6.337268 10.578699
340  2 0.0000 25.968224  7.966470 14.811085
341  2 0.0000 29.038805  9.595671 19.043471
342  2 0.0000 32.109386 11.224873 23.275857
343  2 0.0000 19.827061  7.613994  2.113927
344  2 0.0000 22.897642  9.243196  6.346313
345  2 0.0000 25.968223 10.872397 10.578699
346  2 0.0000 29.038804 12.501599 14.811085
347  2 0.0000 32.109385 14.130800 19.043471
348  2 0.0000 35.179967 15.760002 23.275857
349  2 0.0000 22.897642 12.149123  2.113927
350  2 0.0000 25.968223 13.778325  6.346313
351  2 0.0000 29.038804 15.407526 10.578699
352  2 0.0000 32.109385 17.036728 14.811085
353  2 0.0000 35.179966 18.665929 19.043471
354  2 0.0000 38.250547 20.295131 23.275857
355  2 0.0000 25.968223 16.684252  2.113927
356  2 0.0000 29.038804 18.313454  6.346313
357  2 0.0000 32.109385 19.942655 10.578699
358  2 0.0000 35.179966 21.571857 14.811085
359  2 0.0000 38.250547 23.201058 19.043471
360  2 0.0000 41.321128 24.830260 23.275857
361  2 0.0000 22.233328  3.078865  2.113927
362  2 0.0000 25.303909  4.708067  6.346313
363  2 0.0000 28.374490  6.337268 10.578699
364  2 0.0000 31.445071  7.966470 14.811085
365  2 0.0000 34.515652  9.595671 19.043471
366  2 0.0000 37.586233 11.224873 23.275857
367  2 0.0000 25.303909  7.613994  2.113927
368  2 0.0000 28.374490  9.243196  6.346313
369  2 0.0000 31.445071 10.872397 10.578699
370  2 0.0000 34.515652 12.501599 14.811085
371  2 0.0000 37.586233 14.130800 19.043471
372  2 0.0000 40.656814 15.760002 23.275857
373  2 0.0000 28.374490 12.149123  2.113927
374  2 0.0000 31.445071 13.778325  6.346313
375  2 0.0000 34.515652 15.407526 10.578699
376  2 0.0000 37.586233 17.036728 14.811085
377  2 0.0000 40.656814 18.665929 19.043471
378  2 0.0000 43.727395 20.295131 23.275857
379  2 0.0000 31.445071 16.684252  2.113927
380  2 0.0000 34.515652 18.313454  6.346313
381  2 0.0000 37.586233 19.942655 10.578699
382  2 0.0000 40.656814 21.571857 14.811085
383  2 0.0000 43.727395 23.201058 19.043471
384  2 0.0000 46.797976 24.830260 23.275857
385  3 0.0000  6.715117  2.430040  3.668324
386  3 0.0000  9.785698  4.059242  7.900710
387  3 0.0000 12.856279  5.688443 12.133096
388  3 0.0000 15.926860  7.317645 16.365482
389  3 0.0000 18.997441  8.946846 20.597868
390  3 0.0000 22.068022 10.576048 24.830254
391  3 0.0000  9.785698  6.965169  3.668324
392  3 0.0000 12.856279  8.594370  7.900710
393  3 0.0000 15.926860 10.223572 12.133096
394  3 0.0000 18.997441 11.852773 16.365482
395  3 0.0000 22.068022 13.481975 20.597868
396  3 0.0000 25.138603 15.111176 24.830254
397  3 0.0000 12.856279 11.500298  3.668324
398  3 0.0000 15.926860 13.129499  7.900710
399  3 0.0000 18.997441 14.758701 12.133096
400  3 0.0000 22.068022 16.387902 16.365482
401  3 0.0000 25.138603 18.017104 20.597868
402  3 0.0000 28.209184 19.646305 24.830254
403  3 0.0000 15.926860 16.035427  3.668324
404  3 0.0000 18.997441 17.664628  7.900710
405  3 0.0000 22.068022 19.293830 12.133096
406  3 0.0000 25.138603 20.923031 16.365482
407  3 0.0000 28.209184 22.552233 20.597868
408  3 0.0000 31.279765 24.181434 24.830254
409  3 0.0000 12.191965  2.430040  3.668324
410  3 0.0000 15.262546  4.059242  7.900710
411  3 0.0000 18.333127  5.688443 12.133096
412  3 0.0000 21.403708  7.317645 16.365482
413  3 0.0000 24.474289  8.946846 20.597868
414  3 0.0000 27.544870 10.576048 24.830254
415  3 0.0000 15.262546  6.965169  3.668324
416  3 0.0000 18.333127  8.594370  7.900710
417  3 0.0000 21.403708 10.223572 12.133096
418  3 0.0000 24.474289 11.852773 16.365482
419  3 0.0000 27.544870 13.481975 20.597868
420  3 0.0000 30.615451 15.111176 24.830254
421  3 0.0000 18.333126 11.500298  3.668324
422  3 0.0000 21.403708 13.129499  7.900710
423  3 0.0000 24.474289 14.758701 12.133096
424  3 0.0000 27.544870 16.387902 16.365482
425  3 0.0000 30.615451 18.017104 20.597868
426  3 0.0000 33.686032 19.646305 24.830254
427  3 0.0000 21.403707 16.035427  3.668324
428  3 0.0000 24.474288 17.664628  7.900710
429  3 0.0000 27.544869 19.293830 12.133096
430  3 0.0000 30.615450 20.923031 16.365482
431  3 0.0000 33.686032 22.552233 20.597868
432  3 0.0000 36.756613 24.181434 24.830254
433  3 0.0000 17.668812  2.430040  3.668324
434  3 0.0000 20.739394  4.059242  7.900710
435  3 0.0000 23.809975  5.688443 12.133096
436  3 0.0000 26.880556  7.317645 16.365482
437  3 0.0000 29.951137  8.946846 20.597868
438  3 0.0000 33.021718 10.576048 24.830254
439  3 0.0000 20.739393  6.965169  3.668324
440  3 0.0000 23.809974  8.594370  7.900710
441  3 0.0000 26.880555 10.223572 12.133096
442  3 0.0000 29.951136 11.852773 16.365482
443  3 0.0000 33.021718 13.481975 20.597868
444  3 0.0000 36.092299 15.111176 24.830254
445  3 0.0000 23.809974 11.500298  3.668324
446  3 0.0000 26.880555 13.129499  7.900710
447  3 0.0000 29.951136 14.758701 12.133096
448  3 0.0000 33.021717 16.387902 16.365482
449  3 0.0000 36.092298 18.017104 20.597868
450  3 0.0000 39.162879 19.646305 24.830254
451  3 0.0000 26.880555 16.035427  3.668324
452  3 0.0000 29.951136 17.664628  7.900710
453  3 0.0000 33.021717 19.293830 12.133096
454  3 0.0000 36.092298 20.923031 16.365482
455  3 0.0000 39.162879 22.552233 20.597868
456  3 0.0000 42.233460 24.181434 24.830254
457  3 0.0000 23.145660  2.430040  3.668324
458  3 0.0000 26.216241  4.059242  7.900710
459  3 0.0000 29.286822  5.688443 12.133096
460  3 0.0000 32.357403  7.317645 16.365482
461  3 0.0000 35.427984  8.946846 20.597868
462  3 0.0000 38.498565 10.576048 24.830254
463  3 0.0000 26.216241  6.965169  3.668324
464  3 0.0000 29.286822  8.594370  7.900710
465  3 0.0000 32.357403 10.223572 12.133096
466  3 0.0000 35.427984 11.852773 16.365482
467  3 0.0000 38.498565 13.481975 20.597868
468  3 0.0000 41.569146 15.111176 24.830254
469  3 0.0000 29.286822 11.500298  3.668324
470  3 0.0000 32.357403 13.129499  7.900710
471  3 0.0000 35.427984 14.758701 12.133096
472  3 0.0000 38.498565 16.387902 16.365482
473  3 0.0000 41.569146 18.017104 20.597868
474  3 0.0000 44.639727 19.646305 24.830254
475  3 0.0000 32.357403 16.035427  3.668324
476  3 0.0000 35.427984 17.664628  7.900710
477  3 0.0000 38.498565 19.293830 12.133096
478  3 0.0000 41.569146 20.923031 16.365482
479  3 0.0000 44.639727 22.552233 20.597868
480  3 0.0000 47.710308 24.181434 24.830254
481  3 0.0000  5.444862  1.115923  1.552131
482  3 0.0000  8.515443  2.745125  5.784517
483  3 0.0000 11.586024  4.374326 10.016903
484  3 0.0000 14.656605  6.003528 14.249289
485  3 0.0000 17.727186  7.632729 18.481675
486  3 0.0000 20.797767  9.261931 22.714061
487  3 0.0000  8.515443  5.651052  1.552131
488  3 0.0000 11.586024  7.280254  5.784517
489  3 0.0000 14.656605  8.909455 10.016903
490  3 0.0000 17.727186 10.538657 14.249289
491  3 0.0000 20.797767 12.167858 18.481675
492  3 0.0000 23.868348 13.797060 22.714061
493  3 0.0000 11.586024 10.186181  1.552131
494  3 0.0000 14.656605 11.815382  5.784517
495  3 0.0000 17.727186 13.444584 10.016903
496  3 0.0000 20.797767 15.073786 14.249289
497  3 0.0000 23.868348 16.702987 18.481675
498  3 0.0000 26.938929 18.332189 22.714061
499  3 0.0000 14.656604 14.721310  1.552131
500  3 0.0000 17.727185 16.350511  5.784517
501  3 0.0000 20.797767 17.979713 10.016903
502  3 0.0000 23.868348 19.608914 14.249289
503  3 0.0000 26.938929 21.238116 18.481675
504  3 0.0000 30.009510 22.867317 22.714061
505  3 0.0000 10.921710  1.115923  1.552131
506  3 0.0000 13.992291  2.745125  5.784517
507  3 0.0000 17.062872  4.374326 10.016903
508  3 0.0000 20.133453  6.003528 14.249289
509  3 0.0000 23.204034  7.632729 18.481675
510  3 0.0000 26.274615  9.261931 22.714061
511  3 0.0000 13.992290  5.651052  1.552131
512  3 0.0000 17.062871  7.280254  5.784517
513  3 0.0000 20.133453  8.909455 10.016903
514  3 0.0000 23.204034 10.538657 14.249289
515  3 0.0000 26.274615 12.167858 18.481675
516  3 0.0000 29.345196 13.797060 22.714061
517  3 0.0000 17.062871 10.186181  1.552131
518  3 0.0000 20.133452 11.815382  5.784517
519  3 0.0000 23.204033 13.444584 10.016903
520  3 0.0000 26.274614 15.073786 14.249289
521  3 0.0000 29.345195 16.702987 18.481675
522  3 0.0000 32.415777 18.332189 22.714061
523  3 0.0000 20.133452 14.721310  1.552131
524  3 0.0000 23.204033 16.350511  5.784517
525  3 0.0000 26.274614 17.979713 10.016903
526  3 0.0000 29.345195 19.608914 14.249289
527  3 0.0000 32.415776 21.238116 18.481675
528  3 0.0000 35.486357 22.867317 22.714061
529  3 0.0000 16.398557  1.115923  1.552131
530  3 0.0000 19.469138  2.745125  5.784517
531  3 0.0000 22.539719  4.374326 10.016903
532  3 0.0000 25.610300  6.003528 14.249289
533  3 0.0000 28.680881  7.632729 18.481675
534  3 0.0000 31.751463  9.261931 22.714061
535  3 0.0000 19.469138  5.651052  1.552131
536  3 0.0000 22.539719  7.280254  5.784517
537  3 0.0000 25.610300  8.909455 10.016903
538  3 0.0000 28.680881 10.538657 14.249289
539  3 0.0000 31.751462 12.167858 18.481675
540  3 0.0000 34.822043 13.797060 22.714061
541  3 0.0000 22.539719 10.186181  1.552131
542  3 0.0000 25.610300 11.815382  5.784517
543  3 0.0000 28.680881 13.444584 10.016903
544  3 0.0000 31.751462 15.073786 14.249289
545  3 0.0000 34.822043 16.702987 18.481675
546  3 0.0000 37.892624 18.332189 22.714061
547  3 0.0000 25.610300 14.721310  1.552131
548  3 0.0000 28.680881 16.350511  5.784517
549  3 0.0000 31.751462 17.979713 10.016903
550  3 0.0000 34.822043 19.608914 14.249289
551  3 0.0000 37.892624 21.238116 18.481675
552  3 0.0000 40.963205 22.867317 22.714061
553  3 0.0000 21.875405  1.115923  1.552131
554  3 0.0000 24.945986  2.745125  5.784517
555  3 0.0000 28.016567  4.374326 10.016903
556  3 0.0000 31.087148  6.003528 14.249289
557  3 0.0000 34.157729  7.632729 18.481675
558  3 0.0000 37.228310  9.261931 22.714061
559  3 0.0000 24.945986  5.651052  1.552131
560  3 0.0000 28.016567  7.280254  5.784517
561  3 0.0000 31.087148  8.909455 10.016903
562  3 0.0000 34.157729 10.538657 14.249289
563  3 0.0000 37.228310 12.167858 18.481675
564  3 0.0000 40.298891 13.797060 22.714061
565  3 0.0000 28.016567 10.186181  1.552131
566  3 0.0000 31.087148 11.815382  5.784517
567  3 0.0000 34.157729 13.444584 10.016903
568  3 0.0000 37.228310 15.073786 14.249289
569  3 0.0000 40.298891 16.702987 18.481675
570  3 0.0000 43.369472 18.332189 22.714061
571  3 0.0000 31.087147 14.721310  1.552131
572  3 0.0000 34.157728 16.350511  5.784517
573  3 0.0000 37.228310 17.979713 10.016903
574  3 0.0000 40.298891 19.608914 14.249289
575  3 0.0000 43.369472 21.238116 18.481675
576  3 0.0000 46.440053 22.867317 22.714061
577  3 0.0000  3.976693  2.843450  3.066205
578  3 0.0000  7.047274  4.472652  7.298591
579  3 0.0000 10.117855  6.101853 11.530978
580  3 0.0000 13.188436  7.731055 15.763364
581  3 0.0000 16.259018  9.360256 19.995750
582  3 0.0000 19.329599 10.989458 24.228136
583  3 0.0000  7.047274  7.378579  3.066205
584  3 0.0000 10.117855  9.007781  7.298591
585  3 0.0000 13.188436 10.636982 11.530978
586  3 0.0000 16.259017 12.266184 15.763364
587  3 0.0000 19.329598 13.895385 19.995750
588  3 0.0000 22.400179 15.524587 24.228136
589  3 0.0000 10.117855 11.913708  3.066205
590  3 0.0000 13.188436 13.542910  7.298591
591  3 0.0000 16.259017 15.172111 11.530978
592  3 0.0000 19.329598 16.801313 15.763364
593  3 0.0000 22.400179 18.430514 19.995750
594  3 0.0000 25.470760 20.059716 24.228136
595  3 0.0000 13.188436 16.448837  3.066205
596  3 0.0000 16.259017 18.078039  7.298591
597  3 0.0000 19.329598 19.707240 11.530978
598  3 0.0000 22.400179 21.336442 15.763364
599  3 0.0000 25.470760 22.965643 19.995750
600  3 0.0000 28.541341 24.594845 24.228136
601  3 0.0000  9.453541  2.843450  3.066205
602  3 0.0000 12.524122  4.472652  7.298591
603  3 0.0000 15.594703  6.101853 11.530978
604  3 0.0000 18.665284  7.731055 15.763364
605  3 0.0000 21.735865  9.360256 19.995750
606  3 0.0000 24.806446 10.989458 24.228136
607  3 0.0000 12.524122  7.378579  3.066205
608  3 0.0000 15.594703  9.007781  7.298591
609  3 0.0000 18.665284 10.636982 11.530978
610  3 0.0000 21.735865 12.266184 15.763364
611  3 0.0000 24.806446 13.895385 19.995750
612  3 0.0000 27.877027 15.524587 24.228136
613  3 0.0000 15.594703 11.913708  3.066205
614  3 0.0000 18.665284 13.542910  7.298591
615  3 0.0000 21.735865 15.172111 11.530978
616  3 0.0000 24.806446 16.801313 15.763364
617  3 0.0000 27.877027 18.430514 19.995750
618  3 0.0000 30.947608 20.059716 24.228136
619  3 0.0000 18.665283 16.448837  3.066205
620  3 0.0000 21.735864 18.078039  7.298591
621  3 0.0000 24.806446 19.707240 11.530978
622  3 0.0000 27.877027 21.336442 15.763364
623  3 0.0000 30.947608 22.965643 19.995750
624  3 0.0000 34.018189 24.594845 24.228136
625  3 0.0000 14.930389  2.843450  3.066205
626  3 0.0000 18.000970  4.472652  7.298591
627  3 0.0000 21.071551  6.101853 11.530978
628  3 0.0000 24.142132  7.731055 15.763364
629  3 0.0000 27.212713  9.360256 19.995750
630  3 0.0000 30.283294 10.989458 24.228136
631  3 0.0000 18.000969  7.378579  3.066205
632  3 0.0000 21.071550  9.007781  7.298591
633  3 0.0000 24.142132 10.636982 11.530978
634  3 0.0000 27.212713 12.266184 15.763364
635  3 0.0000 30.283294 13.895385 19.995750
636  3 0.0000 33.353875 15.524587 24.228136
637  3 0.0000 21.071550 11.913708  3.066205
638  3 0.0000 24.142131 13.542910  7.298591
639  3 0.0000 27.212712 15.172111 11.530978
640  3 0.0000 30.283293 16.801313 15.763364
641  3 0.0000 33.353875 18.430514 19.995750
642  3 0.0000 36.424456 20.059716 24.228136
643  3 0.0000 24.142131 16.448837  3.066205
644  3 0.0000 27.212712 18.078039  7.298591
645  3 0.0000 30.283293 19.707240 11.530978
646  3 0.0000 33.353874 21.336442 15.763364
647  3 0.0000 36.424455 22.965643 19.995750
648  3 0.0000 39.495036 24.594845 24.228136
649  3 0.0000 20.407236  2.843450  3.066205
650  3 0.0000 23.477817  4.472652  7.298591
651  3 0.0000 26.548398  6.101853 11.530978
652  3 0.0000 29.618979  7.731055 15.763364
653  3 0.0000 32.689561  9.360256 19.995750
654  3 0.0000 35.760142 10.989458 24.228136
655  3 0.0000 23.477817  7.378579  3.066205
656  3 0.0000 26.548398  9.007781  7.298591
657  3 0.0000 29.618979 10.636982 11.530978
658  3 0.0000 32.689560 12.266184 15.763364
659  3 0.0000 35.760141 13.895385 19.995750
660  3 0.0000 38.830722 15.524587 24.228136
661  3 0.0000 26.548398 11.913708  3.066205
662  3 0.0000 29.618979 13.542910  7.298591
663  3 0.0000 32.689560 15.172111 11.530978
664  3 0.0000 35.760141 16.801313 15.763364
665  3 0.0000 38.830722 18.430514 19.995750
666  3 0.0000 41.901303 20.059716 24.228136
667  3 0.0000 29.618979 16.448837  3.066205
668  3 0.0000 32.689560 18.078039  7.298591
669  3 0.0000 35.760141 19.707240 11.530978
670  3 0.0000 38.830722 21.336442 15.763364
671  3 0.0000 41.901303 22.965643 19.995750
672  3 0.0000 44.971884 24.594845 24.228136
673  3 0.0000  4.584055  3.471780  0.483842
674  3 0.0000  7.654636  5.100981  4.716228
675  3 0.0000 10.725217  6.730183  8.948614