Generated by pymatgen.io.lammps.data.LammpsData

224  atoms

  3  atom types

0.000000 11.737932  xlo xhi
0.000000 10.165456  ylo yhi
0.000000 19.168391  zlo zhi
5.868561 11.737203 6.776859  xy xz yz

Masses

1  51.9961
2  63.5460
3  15.9994

Atoms

1    1 0.0000  4.401633  0.847107  2.396049
2    1 0.0000  7.335934  2.541322  7.188146
3    1 0.0000 10.270235  4.235537 11.980244
4    1 0.0000 13.204536  5.929752 16.772342
5    1 0.0000  7.335914  5.929835  2.396049
6    1 0.0000 10.270215  7.624050  7.188146
7    1 0.0000 13.204516  9.318265 11.980244
8    1 0.0000 16.138816 11.012479 16.772342
9    1 0.0000 10.270599  0.847107  2.396049
10   1 0.0000 13.204900  2.541322  7.188146
11   1 0.0000 16.139201  4.235537 11.980244
12   1 0.0000 19.073502  5.929752 16.772342
13   1 0.0000 13.204880  5.929835  2.396049
14   1 0.0000 16.139181  7.624050  7.188146
15   1 0.0000 19.073481  9.318265 11.980244
16   1 0.0000 22.007782 11.012479 16.772342
17   1 0.0000  2.934291  3.388471  2.396049
18   1 0.0000  5.868592  5.082686  7.188146
19   1 0.0000  8.802892  6.776901 11.980244
20   1 0.0000 11.737193  8.471115 16.772342
21   1 0.0000  5.868571  8.471199  2.396049
22   1 0.0000  8.802872 10.165414  7.188146
23   1 0.0000 11.737173 11.859629 11.980244
24   1 0.0000 14.671474 13.553843 16.772342
25   1 0.0000  8.803257  3.388471  2.396049
26   1 0.0000 11.737557  5.082686  7.188146
27   1 0.0000 14.671858  6.776901 11.980244
28   1 0.0000 17.606159  8.471115 16.772342
29   1 0.0000 11.737537  8.471199  2.396049
30   1 0.0000 14.671838 10.165414  7.188146
31   1 0.0000 17.606139 11.859629 11.980244
32   1 0.0000 20.540440 13.553843 16.772342
33   1 0.0000  4.401623  2.541364  0.000000
34   1 0.0000  7.335924  4.235579  4.792098
35   1 0.0000 10.270225  5.929793  9.584195
36   1 0.0000 13.204526  7.624008 14.376293
37   1 0.0000  7.335904  7.624092  0.000000
38   1 0.0000 10.270205  9.318307  4.792098
39   1 0.0000 13.204505 11.012521  9.584195
40   1 0.0000 16.138806 12.706736 14.376293
41   1 0.0000 10.270589  2.541364  0.000000
42   1 0.0000 13.204890  4.235579  4.792098
43   1 0.0000 16.139191  5.929793  9.584195
44   1 0.0000 19.073492  7.624008 14.376293
45   1 0.0000 13.204870  7.624092  0.000000
46   1 0.0000 16.139170  9.318307  4.792098
47   1 0.0000 19.073471 11.012521  9.584195
48   1 0.0000 22.007772 12.706736 14.376293
49   1 0.0000  5.868774  3.388471  2.396049
50   1 0.0000  8.803074  5.082686  7.188146
51   1 0.0000 11.737375  6.776901 11.980244
52   1 0.0000 14.671676  8.471115 16.772342
53   1 0.0000  8.803054  8.471199  2.396049
54   1 0.0000 11.737355 10.165414  7.188146
55   1 0.0000 14.671656 11.859629 11.980244
56   1 0.0000 17.605957 13.553843 16.772342
57   1 0.0000 11.737739  3.388471  2.396049
58   1 0.0000 14.672040  5.082686  7.188146
59   1 0.0000 17.606341  6.776901 11.980244
60   1 0.0000 20.540642  8.471115 16.772342
61   1 0.0000 14.672020  8.471199  2.396049
62   1 0.0000 17.606321 10.165414  7.188146
63   1 0.0000 20.540622 11.859629 11.980244
64   1 0.0000 23.474923 13.553843 16.772342
65   2 0.0000 10.270354  5.929850  4.193098
66   2 0.0000 13.204655  7.624065  8.985196
67   2 0.0000 16.138955  9.318279 13.777294
68   2 0.0000 19.073256 11.012494 18.569391
69   2 0.0000 13.204634 11.012578  4.193098
70   2 0.0000 16.138935 12.706793  8.985196
71   2 0.0000 19.073236 14.401007 13.777294
72   2 0.0000 22.007537 16.095222 18.569391
73   2 0.0000 16.139320  5.929850  4.193098
74   2 0.0000 19.073620  7.624065  8.985196
75   2 0.0000 22.007921  9.318279 13.777294
76   2 0.0000 24.942222 11.012494 18.569391
77   2 0.0000 19.073600 11.012578  4.193098
78   2 0.0000 22.007901 12.706793  8.985196
79   2 0.0000 24.942202 14.401007 13.777294
80   2 0.0000 27.876503 16.095222 18.569391
81   2 0.0000  1.467194  0.847093  0.598999
82   2 0.0000  4.401494  2.541307  5.391097
83   2 0.0000  7.335795  4.235522 10.183194
84   2 0.0000 10.270096  5.929737 14.975292
85   2 0.0000  4.401474  5.929820  0.598999
86   2 0.0000  7.335775  7.624035  5.391097
87   2 0.0000 10.270076  9.318250 10.183194
88   2 0.0000 13.204377 11.012465 14.975292
89   2 0.0000  7.336159  0.847093  0.598999
90   2 0.0000 10.270460  2.541307  5.391097
91   2 0.0000 13.204761  4.235522 10.183194
92   2 0.0000 16.139062  5.929737 14.975292
93   2 0.0000 10.270440  5.929820  0.598999
94   2 0.0000 13.204741  7.624035  5.391097
95   2 0.0000 16.139042  9.318250 10.183194
96   2 0.0000 19.073342 11.012465 14.975292
97   3 0.0000  8.651733  4.995369  3.532288
98   3 0.0000 11.586034  6.689584  8.324386
99   3 0.0000 14.520335  8.383798 13.116483
100  3 0.0000 17.454635 10.078013 17.908581
101  3 0.0000 11.586013 10.078097  3.532288
102  3 0.0000 14.520314 11.772312  8.324386
103  3 0.0000 17.454615 13.466526 13.116483
104  3 0.0000 20.388916 15.160741 17.908581
105  3 0.0000 14.520699  4.995369  3.532288
106  3 0.0000 17.454999  6.689584  8.324386
107  3 0.0000 20.389300  8.383798 13.116483
108  3 0.0000 23.323601 10.078013 17.908581
109  3 0.0000 17.454979 10.078097  3.532288
110  3 0.0000 20.389280 11.772312  8.324386
111  3 0.0000 23.323581 13.466526 13.116483
112  3 0.0000 26.257882 15.160741 17.908581
113  3 0.0000  4.401631  2.541304  3.408633
114  3 0.0000  7.335932  4.235519  8.200730
115  3 0.0000 10.270232  5.929733 12.992828
116  3 0.0000 13.204533  7.623948 17.784926
117  3 0.0000  7.335911  7.624032  3.408633
118  3 0.0000 10.270212  9.318247  8.200730
119  3 0.0000 13.204513 11.012461 12.992828
120  3 0.0000 16.138814 12.706676 17.784926
121  3 0.0000 10.270596  2.541304  3.408633
122  3 0.0000 13.204897  4.235519  8.200730
123  3 0.0000 16.139198  5.929733 12.992828
124  3 0.0000 19.073499  7.623948 17.784926
125  3 0.0000 13.204877  7.624032  3.408633
126  3 0.0000 16.139178  9.318247  8.200730
127  3 0.0000 19.073479 11.012461 12.992828
128  3 0.0000 22.007780 12.706676 17.784926
129  3 0.0000  4.401618  4.060773  1.259821
130  3 0.0000  7.335919  5.754988  6.051918
131  3 0.0000 10.270220  7.449203 10.844016
132  3 0.0000 13.204521  9.143417 15.636114
133  3 0.0000  7.335899  9.143501  1.259821
134  3 0.0000 10.270200 10.837716  6.051918
135  3 0.0000 13.204500 12.531930 10.844016
136  3 0.0000 16.138801 14.226145 15.636114
137  3 0.0000 10.270584  4.060773  1.259821
138  3 0.0000 13.204885  5.754988  6.051918
139  3 0.0000 16.139186  7.449203 10.844016
140  3 0.0000 19.073487  9.143417 15.636114
141  3 0.0000 13.204864  9.143501  1.259821
142  3 0.0000 16.139165 10.837716  6.051918
143  3 0.0000 19.073466 12.531930 10.844016
144  3 0.0000 22.007767 14.226145 15.636114
145  3 0.0000  5.717434  1.781669  1.259881
146  3 0.0000  8.651735  3.475884  6.051979
147  3 0.0000 11.586036  5.170098 10.844076
148  3 0.0000 14.520337  6.864313 15.636174
149  3 0.0000  8.651715  6.864397  1.259881
150  3 0.0000 11.586016  8.558612  6.051979
151  3 0.0000 14.520317 10.252826 10.844076
152  3 0.0000 17.454617 11.947041 15.636174
153  3 0.0000 11.586400  1.781669  1.259881
154  3 0.0000 14.520701  3.475884  6.051979
155  3 0.0000 17.455002  5.170098 10.844076
156  3 0.0000 20.389303  6.864313 15.636174
157  3 0.0000 14.520681  6.864397  1.259881
158  3 0.0000 17.454982  8.558612  6.051979
159  3 0.0000 20.389282 10.252826 10.844076
160  3 0.0000 23.323583 11.947041 15.636174
161  3 0.0000  7.335929  2.716169  3.532277
162  3 0.0000 10.270230  4.410384  8.324375
163  3 0.0000 13.204531  6.104599 13.116472
164  3 0.0000 16.138832  7.798814 17.908570
165  3 0.0000 10.270210  7.798897  3.532277
166  3 0.0000 13.204510  9.493112  8.324375
167  3 0.0000 16.138811 11.187327 13.116472
168  3 0.0000 19.073112 12.881542 17.908570
169  3 0.0000 13.204895  2.716169  3.532277
170  3 0.0000 16.139196  4.410384  8.324375
171  3 0.0000 19.073497  6.104599 13.116472
172  3 0.0000 22.007798  7.798814 17.908570
173  3 0.0000 16.139175  7.798897  3.532277
174  3 0.0000 19.073476  9.493112  8.324375
175  3 0.0000 22.007777 11.187327 13.116472
176  3 0.0000 24.942078 12.881542 17.908570
177  3 0.0000  6.020113  4.995274  3.532217
178  3 0.0000  8.954414  6.689488  8.324314
179  3 0.0000 11.888715  8.383703 13.116412
180  3 0.0000 14.823015 10.077918 17.908510
181  3 0.0000  8.954393 10.078002  3.532217
182  3 0.0000 11.888694 11.772216  8.324314
183  3 0.0000 14.822995 13.466431 13.116412
184  3 0.0000 17.757296 15.160646 17.908510
185  3 0.0000 11.889079  4.995274  3.532217
186  3 0.0000 14.823380  6.689488  8.324314
187  3 0.0000 17.757680  8.383703 13.116412
188  3 0.0000 20.691981 10.077918 17.908510
189  3 0.0000 14.823359 10.078002  3.532217
190  3 0.0000 17.757660 11.772216  8.324314
191  3 0.0000 20.691961 13.466431 13.116412
192  3 0.0000 23.626262 15.160646 17.908510
193  3 0.0000  3.085814  1.781574  1.259810
194  3 0.0000  6.020115  3.475788  6.051907
195  3 0.0000  8.954416  5.170003 10.844005
196  3 0.0000 11.888717  6.864218 15.636103
197  3 0.0000  6.020095  6.864301  1.259810
198  3 0.0000  8.954396  8.558516  6.051907
199  3 0.0000 11.888697 10.252731 10.844005
200  3 0.0000 14.822998 11.946946 15.636103
201  3 0.0000  8.954780  1.781574  1.259810
202  3 0.0000 11.889081  3.475788  6.051907
203  3 0.0000 14.823382  5.170003 10.844005
204  3 0.0000 17.757683  6.864218 15.636103
205  3 0.0000 11.889061  6.864301  1.259810
206  3 0.0000 14.823362  8.558516  6.051907
207  3 0.0000 17.757662 10.252731 10.844005
208  3 0.0000 20.691963 11.946946 15.636103
209  3 0.0000  7.335917  4.235639  1.383465
210  3 0.0000 10.270217  5.929853  6.175562
211  3 0.0000 13.204518  7.624068 10.967660
212  3 0.0000 16.138819  9.318283 15.759758
213  3 0.0000 10.270197  9.318367  1.383465
214  3 0.0000 13.204498 11.012581  6.175562
215  3 0.0000 16.138799 12.706796 10.967660
216  3 0.0000 19.073100 14.401011 15.759758
217  3 0.0000 13.204882  4.235639  1.383465
218  3 0.0000 16.139183  5.929853  6.175562
219  3 0.0000 19.073484  7.624068 10.967660
220  3 0.0000 22.007785  9.318283 15.759758
221  3 0.0000 16.139163  9.318367  1.383465
222  3 0.0000 19.073464 11.012581  6.175562
223  3 0.0000 22.007765 12.706796 10.967660
224  3 0.0000 24.942065 14.401011 15.759758

