Generated by pymatgen.io.lammps.data.LammpsData

1344  atoms

   3  atom types

0.000000 23.475863  xlo xhi
0.000000 20.330912  ylo yhi
0.000000 28.752586  zlo zhi
11.737122 17.605805 10.165288  xy xz yz

Masses

1  51.9961
2  63.5460
3  15.9994

Atoms

1     1 0.0000  4.401633  0.847107  2.396049
2     1 0.0000  7.335934  2.541322  7.188146
3     1 0.0000 10.270235  4.235537 11.980244
4     1 0.0000 13.204536  5.929752 16.772342
5     1 0.0000 16.138837  7.623966 21.564439
6     1 0.0000 19.073138  9.318181 26.356537
7     1 0.0000  7.335914  5.929835  2.396049
8     1 0.0000 10.270215  7.624050  7.188146
9     1 0.0000 13.204516  9.318265 11.980244
10    1 0.0000 16.138816 11.012479 16.772342
11    1 0.0000 19.073117 12.706694 21.564439
12    1 0.0000 22.007418 14.400909 26.356537
13    1 0.0000 10.270194 11.012563  2.396049
14    1 0.0000 13.204495 12.706778  7.188146
15    1 0.0000 16.138796 14.400993 11.980244
16    1 0.0000 19.073097 16.095207 16.772342
17    1 0.0000 22.007398 17.789422 21.564439
18    1 0.0000 24.941699 19.483637 26.356537
19    1 0.0000 13.204475 16.095291  2.396049
20    1 0.0000 16.138776 17.789506  7.188146
21    1 0.0000 19.073077 19.483720 11.980244
22    1 0.0000 22.007377 21.177935 16.772342
23    1 0.0000 24.941678 22.872150 21.564439
24    1 0.0000 27.875979 24.566365 26.356537
25    1 0.0000 10.270599  0.847107  2.396049
26    1 0.0000 13.204900  2.541322  7.188146
27    1 0.0000 16.139201  4.235537 11.980244
28    1 0.0000 19.073502  5.929752 16.772342
29    1 0.0000 22.007803  7.623966 21.564439
30    1 0.0000 24.942104  9.318181 26.356537
31    1 0.0000 13.204880  5.929835  2.396049
32    1 0.0000 16.139181  7.624050  7.188146
33    1 0.0000 19.073481  9.318265 11.980244
34    1 0.0000 22.007782 11.012479 16.772342
35    1 0.0000 24.942083 12.706694 21.564439
36    1 0.0000 27.876384 14.400909 26.356537
37    1 0.0000 16.139160 11.012563  2.396049
38    1 0.0000 19.073461 12.706778  7.188146
39    1 0.0000 22.007762 14.400993 11.980244
40    1 0.0000 24.942063 16.095207 16.772342
41    1 0.0000 27.876364 17.789422 21.564439
42    1 0.0000 30.810665 19.483637 26.356537
43    1 0.0000 19.073441 16.095291  2.396049
44    1 0.0000 22.007742 17.789506  7.188146
45    1 0.0000 24.942042 19.483720 11.980244
46    1 0.0000 27.876343 21.177935 16.772342
47    1 0.0000 30.810644 22.872150 21.564439
48    1 0.0000 33.744945 24.566365 26.356537
49    1 0.0000 16.139565  0.847107  2.396049
50    1 0.0000 19.073866  2.541322  7.188146
51    1 0.0000 22.008167  4.235537 11.980244
52    1 0.0000 24.942468  5.929752 16.772342
53    1 0.0000 27.876768  7.623966 21.564439
54    1 0.0000 30.811069  9.318181 26.356537
55    1 0.0000 19.073846  5.929835  2.396049
56    1 0.0000 22.008146  7.624050  7.188146
57    1 0.0000 24.942447  9.318265 11.980244
58    1 0.0000 27.876748 11.012479 16.772342
59    1 0.0000 30.811049 12.706694 21.564439
60    1 0.0000 33.745350 14.400909 26.356537
61    1 0.0000 22.008126 11.012563  2.396049
62    1 0.0000 24.942427 12.706778  7.188146
63    1 0.0000 27.876728 14.400993 11.980244
64    1 0.0000 30.811029 16.095207 16.772342
65    1 0.0000 33.745329 17.789422 21.564439
66    1 0.0000 36.679630 19.483637 26.356537
67    1 0.0000 24.942407 16.095291  2.396049
68    1 0.0000 27.876707 17.789506  7.188146
69    1 0.0000 30.811008 19.483720 11.980244
70    1 0.0000 33.745309 21.177935 16.772342
71    1 0.0000 36.679610 22.872150 21.564439
72    1 0.0000 39.613911 24.566365 26.356537
73    1 0.0000 22.008531  0.847107  2.396049
74    1 0.0000 24.942832  2.541322  7.188146
75    1 0.0000 27.877133  4.235537 11.980244
76    1 0.0000 30.811433  5.929752 16.772342
77    1 0.0000 33.745734  7.623966 21.564439
78    1 0.0000 36.680035  9.318181 26.356537
79    1 0.0000 24.942811  5.929835  2.396049
80    1 0.0000 27.877112  7.624050  7.188146
81    1 0.0000 30.811413  9.318265 11.980244
82    1 0.0000 33.745714 11.012479 16.772342
83    1 0.0000 36.680015 12.706694 21.564439
84    1 0.0000 39.614316 14.400909 26.356537
85    1 0.0000 27.877092 11.012563  2.396049
86    1 0.0000 30.811393 12.706778  7.188146
87    1 0.0000 33.745694 14.400993 11.980244
88    1 0.0000 36.679994 16.095207 16.772342
89    1 0.0000 39.614295 17.789422 21.564439
90    1 0.0000 42.548596 19.483637 26.356537
91    1 0.0000 30.811372 16.095291  2.396049
92    1 0.0000 33.745673 17.789506  7.188146
93    1 0.0000 36.679974 19.483720 11.980244
94    1 0.0000 39.614275 21.177935 16.772342
95    1 0.0000 42.548576 22.872150 21.564439
96    1 0.0000 45.482877 24.566365 26.356537
97    1 0.0000  2.934291  3.388471  2.396049
98    1 0.0000  5.868592  5.082686  7.188146
99    1 0.0000  8.802892  6.776901 11.980244
100   1 0.0000 11.737193  8.471115 16.772342
101   1 0.0000 14.671494 10.165330 21.564439
102   1 0.0000 17.605795 11.859545 26.356537
103   1 0.0000  5.868571  8.471199  2.396049
104   1 0.0000  8.802872 10.165414  7.188146
105   1 0.0000 11.737173 11.859629 11.980244
106   1 0.0000 14.671474 13.553843 16.772342
107   1 0.0000 17.605775 15.248058 21.564439
108   1 0.0000 20.540076 16.942273 26.356537
109   1 0.0000  8.802852 13.553927  2.396049
110   1 0.0000 11.737153 15.248142  7.188146
111   1 0.0000 14.671453 16.942357 11.980244
112   1 0.0000 17.605754 18.636571 16.772342
113   1 0.0000 20.540055 20.330786 21.564439
114   1 0.0000 23.474356 22.025001 26.356537
115   1 0.0000 11.737132 18.636655  2.396049
116   1 0.0000 14.671433 20.330870  7.188146
117   1 0.0000 17.605734 22.025084 11.980244
118   1 0.0000 20.540035 23.719299 16.772342
119   1 0.0000 23.474336 25.413514 21.564439
120   1 0.0000 26.408637 27.107729 26.356537
121   1 0.0000  8.803257  3.388471  2.396049
122   1 0.0000 11.737557  5.082686  7.188146
123   1 0.0000 14.671858  6.776901 11.980244
124   1 0.0000 17.606159  8.471115 16.772342
125   1 0.0000 20.540460 10.165330 21.564439
126   1 0.0000 23.474761 11.859545 26.356537
127   1 0.0000 11.737537  8.471199  2.396049
128   1 0.0000 14.671838 10.165414  7.188146
129   1 0.0000 17.606139 11.859629 11.980244
130   1 0.0000 20.540440 13.553843 16.772342
131   1 0.0000 23.474740 15.248058 21.564439
132   1 0.0000 26.409041 16.942273 26.356537
133   1 0.0000 14.671818 13.553927  2.396049
134   1 0.0000 17.606118 15.248142  7.188146
135   1 0.0000 20.540419 16.942357 11.980244
136   1 0.0000 23.474720 18.636571 16.772342
137   1 0.0000 26.409021 20.330786 21.564439
138   1 0.0000 29.343322 22.025001 26.356537
139   1 0.0000 17.606098 18.636655  2.396049
140   1 0.0000 20.540399 20.330870  7.188146
141   1 0.0000 23.474700 22.025084 11.980244
142   1 0.0000 26.409001 23.719299 16.772342
143   1 0.0000 29.343301 25.413514 21.564439
144   1 0.0000 32.277602 27.107729 26.356537
145   1 0.0000 14.672222  3.388471  2.396049
146   1 0.0000 17.606523  5.082686  7.188146
147   1 0.0000 20.540824  6.776901 11.980244
148   1 0.0000 23.475125  8.471115 16.772342
149   1 0.0000 26.409426 10.165330 21.564439
150   1 0.0000 29.343727 11.859545 26.356537
151   1 0.0000 17.606503  8.471199  2.396049
152   1 0.0000 20.540804 10.165414  7.188146
153   1 0.0000 23.475105 11.859629 11.980244
154   1 0.0000 26.409405 13.553843 16.772342
155   1 0.0000 29.343706 15.248058 21.564439
156   1 0.0000 32.278007 16.942273 26.356537
157   1 0.0000 20.540783 13.553927  2.396049
158   1 0.0000 23.475084 15.248142  7.188146
159   1 0.0000 26.409385 16.942357 11.980244
160   1 0.0000 29.343686 18.636571 16.772342
161   1 0.0000 32.277987 20.330786 21.564439
162   1 0.0000 35.212288 22.025001 26.356537
163   1 0.0000 23.475064 18.636655  2.396049
164   1 0.0000 26.409365 20.330870  7.188146
165   1 0.0000 29.343666 22.025084 11.980244
166   1 0.0000 32.277966 23.719299 16.772342
167   1 0.0000 35.212267 25.413514 21.564439
168   1 0.0000 38.146568 27.107729 26.356537
169   1 0.0000 20.541188  3.388471  2.396049
170   1 0.0000 23.475489  5.082686  7.188146
171   1 0.0000 26.409790  6.776901 11.980244
172   1 0.0000 29.344091  8.471115 16.772342
173   1 0.0000 32.278392 10.165330 21.564439
174   1 0.0000 35.212693 11.859545 26.356537
175   1 0.0000 23.475469  8.471199  2.396049
176   1 0.0000 26.409770 10.165414  7.188146
177   1 0.0000 29.344070 11.859629 11.980244
178   1 0.0000 32.278371 13.553843 16.772342
179   1 0.0000 35.212672 15.248058 21.564439
180   1 0.0000 38.146973 16.942273 26.356537
181   1 0.0000 26.409749 13.553927  2.396049
182   1 0.0000 29.344050 15.248142  7.188146
183   1 0.0000 32.278351 16.942357 11.980244
184   1 0.0000 35.212652 18.636571 16.772342
185   1 0.0000 38.146953 20.330786 21.564439
186   1 0.0000 41.081254 22.025001 26.356537
187   1 0.0000 29.344030 18.636655  2.396049
188   1 0.0000 32.278331 20.330870  7.188146
189   1 0.0000 35.212631 22.025084 11.980244
190   1 0.0000 38.146932 23.719299 16.772342
191   1 0.0000 41.081233 25.413514 21.564439
192   1 0.0000 44.015534 27.107729 26.356537
193   1 0.0000  4.401623  2.541364  0.000000
194   1 0.0000  7.335924  4.235579  4.792098
195   1 0.0000 10.270225  5.929793  9.584195
196   1 0.0000 13.204526  7.624008 14.376293
197   1 0.0000 16.138827  9.318223 19.168391
198   1 0.0000 19.073127 11.012438 23.960488
199   1 0.0000  7.335904  7.624092  0.000000
200   1 0.0000 10.270205  9.318307  4.792098
201   1 0.0000 13.204505 11.012521  9.584195
202   1 0.0000 16.138806 12.706736 14.376293
203   1 0.0000 19.073107 14.400951 19.168391
204   1 0.0000 22.007408 16.095165 23.960488
205   1 0.0000 10.270184 12.706820  0.000000
206   1 0.0000 13.204485 14.401034  4.792098
207   1 0.0000 16.138786 16.095249  9.584195
208   1 0.0000 19.073087 17.789464 14.376293
209   1 0.0000 22.007388 19.483679 19.168391
210   1 0.0000 24.941688 21.177893 23.960488
211   1 0.0000 13.204465 17.789548  0.000000
212   1 0.0000 16.138766 19.483762  4.792098
213   1 0.0000 19.073066 21.177977  9.584195
214   1 0.0000 22.007367 22.872192 14.376293
215   1 0.0000 24.941668 24.566406 19.168391
216   1 0.0000 27.875969 26.260621 23.960488
217   1 0.0000 10.270589  2.541364  0.000000
218   1 0.0000 13.204890  4.235579  4.792098
219   1 0.0000 16.139191  5.929793  9.584195
220   1 0.0000 19.073492  7.624008 14.376293
221   1 0.0000 22.007792  9.318223 19.168391
222   1 0.0000 24.942093 11.012438 23.960488
223   1 0.0000 13.204870  7.624092  0.000000
224   1 0.0000 16.139170  9.318307  4.792098
225   1 0.0000 19.073471 11.012521  9.584195
226   1 0.0000 22.007772 12.706736 14.376293
227   1 0.0000 24.942073 14.400951 19.168391
228   1 0.0000 27.876374 16.095165 23.960488
229   1 0.0000 16.139150 12.706820  0.000000
230   1 0.0000 19.073451 14.401034  4.792098
231   1 0.0000 22.007752 16.095249  9.584195
232   1 0.0000 24.942053 17.789464 14.376293
233   1 0.0000 27.876353 19.483679 19.168391
234   1 0.0000 30.810654 21.177893 23.960488
235   1 0.0000 19.073431 17.789548 -0.000000
236   1 0.0000 22.007731 19.483762  4.792098
237   1 0.0000 24.942032 21.177977  9.584195
238   1 0.0000 27.876333 22.872192 14.376293
239   1 0.0000 30.810634 24.566406 19.168391
240   1 0.0000 33.744935 26.260621 23.960488
241   1 0.0000 16.139555  2.541364  0.000000
242   1 0.0000 19.073856  4.235579  4.792098
243   1 0.0000 22.008157  5.929793  9.584195
244   1 0.0000 24.942457  7.624008 14.376293
245   1 0.0000 27.876758  9.318223 19.168391
246   1 0.0000 30.811059 11.012438 23.960488
247   1 0.0000 19.073835  7.624092  0.000000
248   1 0.0000 22.008136  9.318307  4.792098
249   1 0.0000 24.942437 11.012521  9.584195
250   1 0.0000 27.876738 12.706736 14.376293
251   1 0.0000 30.811039 14.400951 19.168391
252   1 0.0000 33.745340 16.095165 23.960488
253   1 0.0000 22.008116 12.706820  0.000000
254   1 0.0000 24.942417 14.401034  4.792098
255   1 0.0000 27.876718 16.095249  9.584195
256   1 0.0000 30.811018 17.789464 14.376293
257   1 0.0000 33.745319 19.483679 19.168391
258   1 0.0000 36.679620 21.177893 23.960488
259   1 0.0000 24.942396 17.789548  0.000000
260   1 0.0000 27.876697 19.483762  4.792098
261   1 0.0000 30.810998 21.177977  9.584195
262   1 0.0000 33.745299 22.872192 14.376293
263   1 0.0000 36.679600 24.566406 19.168391
264   1 0.0000 39.613901 26.260621 23.960488
265   1 0.0000 22.008521  2.541364  0.000000
266   1 0.0000 24.942822  4.235579  4.792098
267   1 0.0000 27.877122  5.929793  9.584195
268   1 0.0000 30.811423  7.624008 14.376293
269   1 0.0000 33.745724  9.318223 19.168391
270   1 0.0000 36.680025 11.012438 23.960488
271   1 0.0000 42.548606 17.789380 28.752586
272   1 0.0000 27.877102  9.318307  4.792098
273   1 0.0000 30.811403 11.012521  9.584195
274   1 0.0000 33.745704 12.706736 14.376293
275   1 0.0000 36.680005 14.400951 19.168391
276   1 0.0000 39.614306 16.095165 23.960488
277   1 0.0000 27.877082 12.706820  0.000000
278   1 0.0000 30.811383 14.401034  4.792098
279   1 0.0000 33.745683 16.095249  9.584195
280   1 0.0000 36.679984 17.789464 14.376293
281   1 0.0000 39.614285 19.483679 19.168391
282   1 0.0000 42.548586 21.177893 23.960488
283   1 0.0000 30.811362 17.789548 -0.000000
284   1 0.0000 33.745663 19.483762  4.792098
285   1 0.0000 36.679964 21.177977  9.584195
286   1 0.0000 39.614265 22.872192 14.376293
287   1 0.0000 42.548566 24.566406 19.168391
288   1 0.0000 45.482867 26.260621 23.960488
289   1 0.0000  5.868774  3.388471  2.396049
290   1 0.0000  8.803074  5.082686  7.188146
291   1 0.0000 11.737375  6.776901 11.980244
292   1 0.0000 14.671676  8.471115 16.772342
293   1 0.0000 17.605977 10.165330 21.564439
294   1 0.0000 20.540278 11.859545 26.356537
295   1 0.0000  8.803054  8.471199  2.396049
296   1 0.0000 11.737355 10.165414  7.188146
297   1 0.0000 14.671656 11.859629 11.980244
298   1 0.0000 17.605957 13.553843 16.772342
299   1 0.0000 20.540258 15.248058 21.564439
300   1 0.0000 23.474558 16.942273 26.356537
301   1 0.0000 11.737335 13.553927  2.396049
302   1 0.0000 14.671635 15.248142  7.188146
303   1 0.0000 17.605936 16.942357 11.980244
304   1 0.0000 20.540237 18.636571 16.772342
305   1 0.0000 23.474538 20.330786 21.564439
306   1 0.0000 26.408839 22.025001 26.356537
307   1 0.0000 14.671615 18.636655  2.396049
308   1 0.0000 17.605916 20.330870  7.188146
309   1 0.0000 20.540217 22.025084 11.980244
310   1 0.0000 23.474518 23.719299 16.772342
311   1 0.0000 26.408819 25.413514 21.564439
312   1 0.0000 29.343119 27.107729 26.356537
313   1 0.0000 11.737739  3.388471  2.396049
314   1 0.0000 14.672040  5.082686  7.188146
315   1 0.0000 17.606341  6.776901 11.980244
316   1 0.0000 20.540642  8.471115 16.772342
317   1 0.0000 23.474943 10.165330 21.564439
318   1 0.0000 26.409244 11.859545 26.356537
319   1 0.0000 14.672020  8.471199  2.396049
320   1 0.0000 17.606321 10.165414  7.188146
321   1 0.0000 20.540622 11.859629 11.980244
322   1 0.0000 23.474923 13.553843 16.772342
323   1 0.0000 26.409223 15.248058 21.564439
324   1 0.0000 29.343524 16.942273 26.356537
325   1 0.0000 17.606300 13.553927  2.396049
326   1 0.0000 20.540601 15.248142  7.188146
327   1 0.0000 23.474902 16.942357 11.980244
328   1 0.0000 26.409203 18.636571 16.772342
329   1 0.0000 29.343504 20.330786 21.564439
330   1 0.0000 32.277805 22.025001 26.356537
331   1 0.0000 20.540581 18.636655  2.396049
332   1 0.0000 23.474882 20.330870  7.188146
333   1 0.0000 26.409183 22.025084 11.980244
334   1 0.0000 29.343484 23.719299 16.772342
335   1 0.0000 32.277784 25.413514 21.564439
336   1 0.0000 35.212085 27.107729 26.356537
337   1 0.0000 17.606705  3.388471  2.396049
338   1 0.0000 20.541006  5.082686  7.188146
339   1 0.0000 23.475307  6.776901 11.980244
340   1 0.0000 26.409608  8.471115 16.772342
341   1 0.0000 29.343909 10.165330 21.564439
342   1 0.0000 32.278210 11.859545 26.356537
343   1 0.0000 20.540986  8.471199  2.396049
344   1 0.0000 23.475287 10.165414  7.188146
345   1 0.0000 26.409588 11.859629 11.980244
346   1 0.0000 29.343888 13.553843 16.772342
347   1 0.0000 32.278189 15.248058 21.564439
348   1 0.0000 35.212490 16.942273 26.356537
349   1 0.0000 23.475266 13.553927  2.396049
350   1 0.0000 26.409567 15.248142  7.188146
351   1 0.0000 29.343868 16.942357 11.980244
352   1 0.0000 32.278169 18.636571 16.772342
353   1 0.0000 35.212470 20.330786 21.564439
354   1 0.0000 38.146771 22.025001 26.356537
355   1 0.0000 26.409547 18.636655  2.396049
356   1 0.0000 29.343848 20.330870  7.188146
357   1 0.0000 32.278149 22.025084 11.980244
358   1 0.0000 35.212449 23.719299 16.772342
359   1 0.0000 38.146750 25.413514 21.564439
360   1 0.0000 41.081051 27.107729 26.356537
361   1 0.0000 23.475671  3.388471  2.396049
362   1 0.0000 26.409972  5.082686  7.188146
363   1 0.0000 29.344273  6.776901 11.980244
364   1 0.0000 32.278574  8.471115 16.772342
365   1 0.0000 35.212875 10.165330 21.564439
366   1 0.0000 38.147175 11.859545 26.356537
367   1 0.0000 26.409952  8.471199  2.396049
368   1 0.0000 29.344252 10.165414  7.188146
369   1 0.0000 32.278553 11.859629 11.980244
370   1 0.0000 35.212854 13.553843 16.772342
371   1 0.0000 38.147155 15.248058 21.564439
372   1 0.0000 41.081456 16.942273 26.356537
373   1 0.0000 29.344232 13.553927  2.396049
374   1 0.0000 32.278533 15.248142  7.188146
375   1 0.0000 35.212834 16.942357 11.980244
376   1 0.0000 38.147135 18.636571 16.772342
377   1 0.0000 41.081436 20.330786 21.564439
378   1 0.0000 44.015736 22.025001 26.356537
379   1 0.0000 32.278513 18.636655  2.396049
380   1 0.0000 35.212813 20.330870  7.188146
381   1 0.0000 38.147114 22.025084 11.980244
382   1 0.0000 41.081415 23.719299 16.772342
383   1 0.0000 44.015716 25.413514 21.564439
384   1 0.0000 46.950017 27.107729 26.356537
385   2 0.0000 10.270354  5.929850  4.193098
386   2 0.0000 13.204655  7.624065  8.985196
387   2 0.0000 16.138955  9.318279 13.777294
388   2 0.0000 19.073256 11.012494 18.569391
389   2 0.0000 22.007557 12.706709 23.361489
390   2 0.0000 24.941858 14.400924 28.153587
391   2 0.0000 13.204634 11.012578  4.193098
392   2 0.0000 16.138935 12.706793  8.985196
393   2 0.0000 19.073236 14.401007 13.777294
394   2 0.0000 22.007537 16.095222 18.569391
395   2 0.0000 24.941838 17.789437 23.361489
396   2 0.0000 27.876139 19.483652 28.153587
397   2 0.0000 16.138915 16.095306  4.193098
398   2 0.0000 19.073216 17.789521  8.985196
399   2 0.0000 22.007516 19.483735 13.777294
400   2 0.0000 24.941817 21.177950 18.569391
401   2 0.0000 27.876118 22.872165 23.361489
402   2 0.0000 30.810419 24.566379 28.153587
403   2 0.0000 19.073195 21.178034  4.193098
404   2 0.0000 22.007496 22.872248  8.985196
405   2 0.0000 24.941797 24.566463 13.777294
406   2 0.0000 27.876098 26.260678 18.569391
407   2 0.0000 30.810399 27.954893 23.361489
408   2 0.0000 33.744700 29.649107 28.153587
409   2 0.0000 16.139320  5.929850  4.193098
410   2 0.0000 19.073620  7.624065  8.985196
411   2 0.0000 22.007921  9.318279 13.777294
412   2 0.0000 24.942222 11.012494 18.569391
413   2 0.0000 27.876523 12.706709 23.361489
414   2 0.0000 30.810824 14.400924 28.153587
415   2 0.0000 19.073600 11.012578  4.193098
416   2 0.0000 22.007901 12.706793  8.985196
417   2 0.0000 24.942202 14.401007 13.777294
418   2 0.0000 27.876503 16.095222 18.569391
419   2 0.0000 30.810803 17.789437 23.361489
420   2 0.0000 33.745104 19.483652 28.153587
421   2 0.0000 22.007881 16.095306  4.193098
422   2 0.0000 24.942181 17.789521  8.985196
423   2 0.0000 27.876482 19.483735 13.777294
424   2 0.0000 30.810783 21.177950 18.569391
425   2 0.0000 33.745084 22.872165 23.361489
426   2 0.0000 36.679385 24.566379 28.153587
427   2 0.0000 24.942161 21.178034  4.193098
428   2 0.0000 27.876462 22.872248  8.985196
429   2 0.0000 30.810763 24.566463 13.777294
430   2 0.0000 33.745064 26.260678 18.569391
431   2 0.0000 36.679364 27.954893 23.361489
432   2 0.0000 39.613665 29.649107 28.153587
433   2 0.0000 22.008285  5.929850  4.193098
434   2 0.0000 24.942586  7.624065  8.985196
435   2 0.0000 27.876887  9.318279 13.777294
436   2 0.0000 30.811188 11.012494 18.569391
437   2 0.0000 33.745489 12.706709 23.361489
438   2 0.0000 36.679790 14.400924 28.153587
439   2 0.0000 24.942566 11.012578  4.193098
440   2 0.0000 27.876867 12.706793  8.985196
441   2 0.0000 30.811168 14.401007 13.777294
442   2 0.0000 33.745468 16.095222 18.569391
443   2 0.0000 36.679769 17.789437 23.361489
444   2 0.0000 39.614070 19.483652 28.153587
445   2 0.0000 27.876846 16.095306  4.193098
446   2 0.0000 30.811147 17.789521  8.985196
447   2 0.0000 33.745448 19.483735 13.777294
448   2 0.0000 36.679749 21.177950 18.569391
449   2 0.0000 39.614050 22.872165 23.361489
450   2 0.0000 42.548351 24.566379 28.153587
451   2 0.0000 30.811127 21.178034  4.193098
452   2 0.0000 33.745428 22.872248  8.985196
453   2 0.0000 36.679729 24.566463 13.777294
454   2 0.0000 39.614029 26.260678 18.569391
455   2 0.0000 42.548330 27.954893 23.361489
456   2 0.0000 45.482631 29.649107 28.153587
457   2 0.0000 27.877251  5.929850  4.193098
458   2 0.0000 30.811552  7.624065  8.985196
459   2 0.0000 33.745853  9.318279 13.777294
460   2 0.0000 36.680154 11.012494 18.569391
461   2 0.0000 39.614455 12.706709 23.361489
462   2 0.0000 42.548756 14.400924 28.153587
463   2 0.0000 30.811532 11.012578  4.193098
464   2 0.0000 33.745833 12.706793  8.985196
465   2 0.0000 36.680133 14.401007 13.777294
466   2 0.0000 39.614434 16.095222 18.569391
467   2 0.0000 42.548735 17.789437 23.361489
468   2 0.0000 45.483036 19.483652 28.153587
469   2 0.0000 33.745812 16.095306  4.193098
470   2 0.0000 36.680113 17.789521  8.985196
471   2 0.0000 39.614414 19.483735 13.777294
472   2 0.0000 42.548715 21.177950 18.569391
473   2 0.0000 45.483016 22.872165 23.361489
474   2 0.0000 48.417317 24.566379 28.153587
475   2 0.0000 36.680093 21.178034  4.193098
476   2 0.0000 39.614394 22.872248  8.985196
477   2 0.0000 42.548694 24.566463 13.777294
478   2 0.0000 45.482995 26.260678 18.569391
479   2 0.0000 48.417296 27.954893 23.361489
480   2 0.0000 51.351597 29.649107 28.153587
481   2 0.0000  1.467194  0.847093  0.598999
482   2 0.0000  4.401494  2.541307  5.391097
483   2 0.0000  7.335795  4.235522 10.183194
484   2 0.0000 10.270096  5.929737 14.975292
485   2 0.0000 13.204397  7.623951 19.767390
486   2 0.0000 16.138698  9.318166 24.559487
487   2 0.0000  4.401474  5.929820  0.598999
488   2 0.0000  7.335775  7.624035  5.391097
489   2 0.0000 10.270076  9.318250 10.183194
490   2 0.0000 13.204377 11.012465 14.975292
491   2 0.0000 16.138677 12.706679 19.767390
492   2 0.0000 19.072978 14.400894 24.559487
493   2 0.0000  7.335755 11.012548  0.598999
494   2 0.0000 10.270055 12.706763  5.391097
495   2 0.0000 13.204356 14.400978 10.183194
496   2 0.0000 16.138657 16.095193 14.975292
497   2 0.0000 19.072958 17.789407 19.767390
498   2 0.0000 22.007259 19.483622 24.559487
499   2 0.0000 10.270035 16.095276  0.598999
500   2 0.0000 13.204336 17.789491  5.391097
501   2 0.0000 16.138637 19.483706 10.183194
502   2 0.0000 19.072938 21.177920 14.975292
503   2 0.0000 22.007238 22.872135 19.767390
504   2 0.0000 24.941539 24.566350 24.559487
505   2 0.0000  7.336159  0.847093  0.598999
506   2 0.0000 10.270460  2.541307  5.391097
507   2 0.0000 13.204761  4.235522 10.183194
508   2 0.0000 16.139062  5.929737 14.975292
509   2 0.0000 19.073363  7.623951 19.767390
510   2 0.0000 22.007664  9.318166 24.559487
511   2 0.0000 10.270440  5.929820  0.598999
512   2 0.0000 13.204741  7.624035  5.391097
513   2 0.0000 16.139042  9.318250 10.183194
514   2 0.0000 19.073342 11.012465 14.975292
515   2 0.0000 22.007643 12.706679 19.767390
516   2 0.0000 24.941944 14.400894 24.559487
517   2 0.0000 13.204720 11.012548  0.598999
518   2 0.0000 16.139021 12.706763  5.391097
519   2 0.0000 19.073322 14.400978 10.183194
520   2 0.0000 22.007623 16.095193 14.975292
521   2 0.0000 24.941924 17.789407 19.767390
522   2 0.0000 27.876225 19.483622 24.559487
523   2 0.0000 16.139001 16.095276  0.598999
524   2 0.0000 19.073302 17.789491  5.391097
525   2 0.0000 22.007603 19.483706 10.183194
526   2 0.0000 24.941903 21.177920 14.975292
527   2 0.0000 27.876204 22.872135 19.767390
528   2 0.0000 30.810505 24.566350 24.559487
529   2 0.0000 13.205125  0.847093  0.598999
530   2 0.0000 16.139426  2.541307  5.391097
531   2 0.0000 19.073727  4.235522 10.183194
532   2 0.0000 22.008028  5.929737 14.975292
533   2 0.0000 24.942329  7.623951 19.767390
534   2 0.0000 27.876630  9.318166 24.559487
535   2 0.0000 16.139406  5.929820  0.598999
536   2 0.0000 19.073707  7.624035  5.391097
537   2 0.0000 22.008007  9.318250 10.183194
538   2 0.0000 24.942308 11.012465 14.975292
539   2 0.0000 27.876609 12.706679 19.767390
540   2 0.0000 30.810910 14.400894 24.559487
541   2 0.0000 19.073686 11.012548  0.598999
542   2 0.0000 22.007987 12.706763  5.391097
543   2 0.0000 24.942288 14.400978 10.183194
544   2 0.0000 27.876589 16.095193 14.975292
545   2 0.0000 30.810890 17.789407 19.767390
546   2 0.0000 33.745191 19.483622 24.559487
547   2 0.0000 22.007967 16.095276  0.598999
548   2 0.0000 24.942268 17.789491  5.391097
549   2 0.0000 27.876568 19.483706 10.183194
550   2 0.0000 30.810869 21.177920 14.975292
551   2 0.0000 33.745170 22.872135 19.767390
552   2 0.0000 36.679471 24.566350 24.559487
553   2 0.0000 19.074091  0.847093  0.598999
554   2 0.0000 22.008392  2.541307  5.391097
555   2 0.0000 24.942693  4.235522 10.183194
556   2 0.0000 27.876994  5.929737 14.975292
557   2 0.0000 30.811294  7.623951 19.767390
558   2 0.0000 33.745595  9.318166 24.559487
559   2 0.0000 22.008372  5.929820  0.598999
560   2 0.0000 24.942672  7.624035  5.391097
561   2 0.0000 27.876973  9.318250 10.183194
562   2 0.0000 30.811274 11.012465 14.975292
563   2 0.0000 33.745575 12.706679 19.767390
564   2 0.0000 36.679876 14.400894 24.559487
565   2 0.0000 24.942652 11.012548  0.598999
566   2 0.0000 27.876953 12.706763  5.391097
567   2 0.0000 30.811254 14.400978 10.183194
568   2 0.0000 33.745555 16.095193 14.975292
569   2 0.0000 36.679855 17.789407 19.767390
570   2 0.0000 39.614156 19.483622 24.559487
571   2 0.0000 27.876933 16.095276  0.598999
572   2 0.0000 30.811233 17.789491  5.391097
573   2 0.0000 33.745534 19.483706 10.183194
574   2 0.0000 36.679835 21.177920 14.975292
575   2 0.0000 39.614136 22.872135 19.767390
576   2 0.0000 42.548437 24.566350 24.559487
577   3 0.0000  8.651733  4.995369  3.532288
578   3 0.0000 11.586034  6.689584  8.324386
579   3 0.0000 14.520335  8.383798 13.116483
580   3 0.0000 17.454635 10.078013 17.908581
581   3 0.0000 20.388936 11.772228 22.700679
582   3 0.0000 23.323237 13.466443 27.492776
583   3 0.0000 11.586013 10.078097  3.532288
584   3 0.0000 14.520314 11.772312  8.324386
585   3 0.0000 17.454615 13.466526 13.116483
586   3 0.0000 20.388916 15.160741 17.908581
587   3 0.0000 23.323217 16.854956 22.700679
588   3 0.0000 26.257518 18.549171 27.492776
589   3 0.0000 14.520294 15.160825  3.532288
590   3 0.0000 17.454595 16.855039  8.324386
591   3 0.0000 20.388896 18.549254 13.116483
592   3 0.0000 23.323196 20.243469 17.908581
593   3 0.0000 26.257497 21.937684 22.700679
594   3 0.0000 29.191798 23.631898 27.492776
595   3 0.0000 17.454574 20.243553  3.532288
596   3 0.0000 20.388875 21.937767  8.324386
597   3 0.0000 23.323176 23.631982 13.116483
598   3 0.0000 26.257477 25.326197 17.908581
599   3 0.0000 29.191778 27.020412 22.700679
600   3 0.0000 32.126079 28.714626 27.492776
601   3 0.0000 14.520699  4.995369  3.532288
602   3 0.0000 17.454999  6.689584  8.324386
603   3 0.0000 20.389300  8.383798 13.116483
604   3 0.0000 23.323601 10.078013 17.908581
605   3 0.0000 26.257902 11.772228 22.700679
606   3 0.0000 29.192203 13.466443 27.492776
607   3 0.0000 17.454979 10.078097  3.532288
608   3 0.0000 20.389280 11.772312  8.324386
609   3 0.0000 23.323581 13.466526 13.116483
610   3 0.0000 26.257882 15.160741 17.908581
611   3 0.0000 29.192183 16.854956 22.700679
612   3 0.0000 32.126483 18.549171 27.492776
613   3 0.0000 20.389260 15.160825  3.532288
614   3 0.0000 23.323560 16.855039  8.324386
615   3 0.0000 26.257861 18.549254 13.116483
616   3 0.0000 29.192162 20.243469 17.908581
617   3 0.0000 32.126463 21.937684 22.700679
618   3 0.0000 35.060764 23.631898 27.492776
619   3 0.0000 23.323540 20.243553  3.532288
620   3 0.0000 26.257841 21.937767  8.324386
621   3 0.0000 29.192142 23.631982 13.116483
622   3 0.0000 32.126443 25.326197 17.908581
623   3 0.0000 35.060744 27.020412 22.700679
624   3 0.0000 37.995044 28.714626 27.492776
625   3 0.0000 20.389664  4.995369  3.532288
626   3 0.0000 23.323965  6.689584  8.324386
627   3 0.0000 26.258266  8.383798 13.116483
628   3 0.0000 29.192567 10.078013 17.908581
629   3 0.0000 32.126868 11.772228 22.700679
630   3 0.0000 35.061169 13.466443 27.492776
631   3 0.0000 23.323945 10.078097  3.532288
632   3 0.0000 26.258246 11.772312  8.324386
633   3 0.0000 29.192547 13.466526 13.116483
634   3 0.0000 32.126848 15.160741 17.908581
635   3 0.0000 35.061148 16.854956 22.700679
636   3 0.0000 37.995449 18.549171 27.492776
637   3 0.0000 26.258225 15.160825  3.532288
638   3 0.0000 29.192526 16.855039  8.324386
639   3 0.0000 32.126827 18.549254 13.116483
640   3 0.0000 35.061128 20.243469 17.908581
641   3 0.0000 37.995429 21.937684 22.700679
642   3 0.0000 40.929730 23.631898 27.492776
643   3 0.0000 29.192506 20.243553  3.532288
644   3 0.0000 32.126807 21.937767  8.324386
645   3 0.0000 35.061108 23.631982 13.116483
646   3 0.0000 37.995409 25.326197 17.908581
647   3 0.0000 40.929709 27.020412 22.700679
648   3 0.0000 43.864010 28.714626 27.492776
649   3 0.0000 26.258630  4.995369  3.532288
650   3 0.0000 29.192931  6.689584  8.324386
651   3 0.0000 32.127232  8.383798 13.116483
652   3 0.0000 35.061533 10.078013 17.908581
653   3 0.0000 37.995834 11.772228 22.700679
654   3 0.0000 40.930135 13.466443 27.492776
655   3 0.0000 29.192911 10.078097  3.532288
656   3 0.0000 32.127212 11.772312  8.324386
657   3 0.0000 35.061513 13.466526 13.116483
658   3 0.0000 37.995813 15.160741 17.908581
659   3 0.0000 40.930114 16.854956 22.700679
660   3 0.0000 43.864415 18.549171 27.492776
661   3 0.0000 32.127191 15.160825  3.532288