Generated by pymatgen.io.lammps.data.LammpsData

96  atoms

 2  atom types

0.000000 6.095567  xlo xhi
0.000000 9.230393  ylo yhi
0.000000 18.460786  zlo zhi

Masses

1  24.305000
2  18.998403

Atoms

1   1 0.0000 1.523892 2.307598  2.307598
2   1 0.0000 1.523892 2.307598  6.922795
3   1 0.0000 1.523892 2.307598 11.537992
4   1 0.0000 1.523892 2.307598 16.153188
5   1 0.0000 1.523892 6.922795  2.307598
6   1 0.0000 1.523892 6.922795  6.922795
7   1 0.0000 1.523892 6.922795 11.537992
8   1 0.0000 1.523892 6.922795 16.153188
9   1 0.0000 4.571675 2.307598  2.307598
10  1 0.0000 4.571675 2.307598  6.922795
11  1 0.0000 4.571675 2.307598 11.537992
12  1 0.0000 4.571675 2.307598 16.153188
13  1 0.0000 4.571675 6.922795  2.307598
14  1 0.0000 4.571675 6.922795  6.922795
15  1 0.0000 4.571675 6.922795 11.537992
16  1 0.0000 4.571675 6.922795 16.153188
17  1 0.0000 0.000000 0.000000  0.000000
18  1 0.0000 0.000000 0.000000  4.615197
19  1 0.0000 0.000000 0.000000  9.230393
20  1 0.0000 0.000000 0.000000 13.845590
21  1 0.0000 0.000000 4.615197  0.000000
22  1 0.0000 0.000000 4.615197  4.615197
23  1 0.0000 0.000000 4.615197  9.230393
24  1 0.0000 0.000000 4.615197 13.845590
25  1 0.0000 3.047784 0.000000  0.000000
26  1 0.0000 3.047784 0.000000  4.615197
27  1 0.0000 3.047784 0.000000  9.230393
28  1 0.0000 3.047784 0.000000 13.845590
29  1 0.0000 3.047784 4.615197  0.000000
30  1 0.0000 3.047784 4.615197  4.615197
31  1 0.0000 3.047784 4.615197  9.230393
32  1 0.0000 3.047784 4.615197 13.845590
33  2 0.0000 0.000000 3.217161  3.217161
34  2 0.0000 0.000000 3.217161  7.832357
35  2 0.0000 0.000000 3.217161 12.447554
36  2 0.0000 0.000000 3.217161 17.062750
37  2 0.0000 0.000000 7.832357  3.217161
38  2 0.0000 0.000000 7.832357  7.832357
39  2 0.0000 0.000000 7.832357 12.447554
40  2 0.0000 0.000000 7.832357 17.062750
41  2 0.0000 3.047784 3.217161  3.217161
42  2 0.0000 3.047784 3.217161  7.832357
43  2 0.0000 3.047784 3.217161 12.447554
44  2 0.0000 3.047784 3.217161 17.062750
45  2 0.0000 3.047784 7.832357  3.217161
46  2 0.0000 3.047784 7.832357  7.832357
47  2 0.0000 3.047784 7.832357 12.447554
48  2 0.0000 3.047784 7.832357 17.062750
49  2 0.0000 1.523892 3.705634  0.909562
50  2 0.0000 1.523892 3.705634  5.524759
51  2 0.0000 1.523892 3.705634 10.139956
52  2 0.0000 1.523892 3.705634 14.755152
53  2 0.0000 1.523892 8.320831  0.909562
54  2 0.0000 1.523892 8.320831  5.524759
55  2 0.0000 1.523892 8.320831 10.139956
56  2 0.0000 1.523892 8.320831 14.755152
57  2 0.0000 4.571675 3.705634  0.909562
58  2 0.0000 4.571675 3.705634  5.524759
59  2 0.0000 4.571675 3.705634 10.139956
60  2 0.0000 4.571675 3.705634 14.755152
61  2 0.0000 4.571675 8.320831  0.909562
62  2 0.0000 4.571675 8.320831  5.524759
63  2 0.0000 4.571675 8.320831 10.139956
64  2 0.0000 4.571675 8.320831 14.755152
65  2 0.0000 0.000000 1.398036  1.398036
66  2 0.0000 0.000000 1.398036  6.013233
67  2 0.0000 0.000000 1.398036 10.628429
68  2 0.0000 0.000000 1.398036 15.243626
69  2 0.0000 0.000000 6.013233  1.398036
70  2 0.0000 0.000000 6.013233  6.013233
71  2 0.0000 0.000000 6.013233 10.628429
72  2 0.0000 0.000000 6.013233 15.243626
73  2 0.0000 3.047784 1.398036  1.398036
74  2 0.0000 3.047784 1.398036  6.013233
75  2 0.0000 3.047784 1.398036 10.628429
76  2 0.0000 3.047784 1.398036 15.243626
77  2 0.0000 3.047784 6.013233  1.398036
78  2 0.0000 3.047784 6.013233  6.013233
79  2 0.0000 3.047784 6.013233 10.628429
80  2 0.0000 3.047784 6.013233 15.243626
81  2 0.0000 1.523892 0.909562  3.705634
82  2 0.0000 1.523892 0.909562  8.320831
83  2 0.0000 1.523892 0.909562 12.936028
84  2 0.0000 1.523892 0.909562 17.551224
85  2 0.0000 1.523892 5.524759  3.705634
86  2 0.0000 1.523892 5.524759  8.320831
87  2 0.0000 1.523892 5.524759 12.936028
88  2 0.0000 1.523892 5.524759 17.551224
89  2 0.0000 4.571675 0.909562  3.705634
90  2 0.0000 4.571675 0.909562  8.320831
91  2 0.0000 4.571675 0.909562 12.936028
92  2 0.0000 4.571675 0.909562 17.551224
93  2 0.0000 4.571675 5.524759  3.705634
94  2 0.0000 4.571675 5.524759  8.320831
95  2 0.0000 4.571675 5.524759 12.936028
96  2 0.0000 4.571675 5.524759 17.551224

