Generated by pymatgen.io.lammps.data.LammpsData

576  atoms

  2  atom types

0.000000 12.191134  xlo xhi
0.000000 18.460786  ylo yhi
0.000000 27.691180  zlo zhi

Masses

1  24.305000
2  18.998403

Atoms

1    1 0.0000  1.523892  2.307598  2.307598
2    1 0.0000  1.523892  2.307598  6.922795
3    1 0.0000  1.523892  2.307598 11.537992
4    1 0.0000  1.523892  2.307598 16.153188
5    1 0.0000  1.523892  2.307598 20.768385
6    1 0.0000  1.523892  2.307598 25.383581
7    1 0.0000  1.523892  6.922795  2.307598
8    1 0.0000  1.523892  6.922795  6.922795
9    1 0.0000  1.523892  6.922795 11.537992
10   1 0.0000  1.523892  6.922795 16.153188
11   1 0.0000  1.523892  6.922795 20.768385
12   1 0.0000  1.523892  6.922795 25.383581
13   1 0.0000  1.523892 11.537992  2.307598
14   1 0.0000  1.523892 11.537992  6.922795
15   1 0.0000  1.523892 11.537992 11.537992
16   1 0.0000  1.523892 11.537992 16.153188
17   1 0.0000  1.523892 11.537992 20.768385
18   1 0.0000  1.523892 11.537992 25.383581
19   1 0.0000  1.523892 16.153188  2.307598
20   1 0.0000  1.523892 16.153188  6.922795
21   1 0.0000  1.523892 16.153188 11.537992
22   1 0.0000  1.523892 16.153188 16.153188
23   1 0.0000  1.523892 16.153188 20.768385
24   1 0.0000  1.523892 16.153188 25.383581
25   1 0.0000  4.571675  2.307598  2.307598
26   1 0.0000  4.571675  2.307598  6.922795
27   1 0.0000  4.571675  2.307598 11.537992
28   1 0.0000  4.571675  2.307598 16.153188
29   1 0.0000  4.571675  2.307598 20.768385
30   1 0.0000  4.571675  2.307598 25.383581
31   1 0.0000  4.571675  6.922795  2.307598
32   1 0.0000  4.571675  6.922795  6.922795
33   1 0.0000  4.571675  6.922795 11.537992
34   1 0.0000  4.571675  6.922795 16.153188
35   1 0.0000  4.571675  6.922795 20.768385
36   1 0.0000  4.571675  6.922795 25.383581
37   1 0.0000  4.571675 11.537992  2.307598
38   1 0.0000  4.571675 11.537992  6.922795
39   1 0.0000  4.571675 11.537992 11.537992
40   1 0.0000  4.571675 11.537992 16.153188
41   1 0.0000  4.571675 11.537992 20.768385
42   1 0.0000  4.571675 11.537992 25.383581
43   1 0.0000  4.571675 16.153188  2.307598
44   1 0.0000  4.571675 16.153188  6.922795
45   1 0.0000  4.571675 16.153188 11.537992
46   1 0.0000  4.571675 16.153188 16.153188
47   1 0.0000  4.571675 16.153188 20.768385
48   1 0.0000  4.571675 16.153188 25.383581
49   1 0.0000  7.619459  2.307598  2.307598
50   1 0.0000  7.619459  2.307598  6.922795
51   1 0.0000  7.619459  2.307598 11.537992
52   1 0.0000  7.619459  2.307598 16.153188
53   1 0.0000  7.619459  2.307598 20.768385
54   1 0.0000  7.619459  2.307598 25.383581
55   1 0.0000  7.619459  6.922795  2.307598
56   1 0.0000  7.619459  6.922795  6.922795
57   1 0.0000  7.619459  6.922795 11.537992
58   1 0.0000  7.619459  6.922795 16.153188
59   1 0.0000  7.619459  6.922795 20.768385
60   1 0.0000  7.619459  6.922795 25.383581
61   1 0.0000  7.619459 11.537992  2.307598
62   1 0.0000  7.619459 11.537992  6.922795
63   1 0.0000  7.619459 11.537992 11.537992
64   1 0.0000  7.619459 11.537992 16.153188
65   1 0.0000  7.619459 11.537992 20.768385
66   1 0.0000  7.619459 11.537992 25.383581
67   1 0.0000  7.619459 16.153188  2.307598
68   1 0.0000  7.619459 16.153188  6.922795
69   1 0.0000  7.619459 16.153188 11.537992
70   1 0.0000  7.619459 16.153188 16.153188
71   1 0.0000  7.619459 16.153188 20.768385
72   1 0.0000  7.619459 16.153188 25.383581
73   1 0.0000 10.667242  2.307598  2.307598
74   1 0.0000 10.667242  2.307598  6.922795
75   1 0.0000 10.667242  2.307598 11.537992
76   1 0.0000 10.667242  2.307598 16.153188
77   1 0.0000 10.667242  2.307598 20.768385
78   1 0.0000 10.667242  2.307598 25.383581
79   1 0.0000 10.667242  6.922795  2.307598
80   1 0.0000 10.667242  6.922795  6.922795
81   1 0.0000 10.667242  6.922795 11.537992
82   1 0.0000 10.667242  6.922795 16.153188
83   1 0.0000 10.667242  6.922795 20.768385
84   1 0.0000 10.667242  6.922795 25.383581
85   1 0.0000 10.667242 11.537992  2.307598
86   1 0.0000 10.667242 11.537992  6.922795
87   1 0.0000 10.667242 11.537992 11.537992
88   1 0.0000 10.667242 11.537992 16.153188
89   1 0.0000 10.667242 11.537992 20.768385
90   1 0.0000 10.667242 11.537992 25.383581
91   1 0.0000 10.667242 16.153188  2.307598
92   1 0.0000 10.667242 16.153188  6.922795
93   1 0.0000 10.667242 16.153188 11.537992
94   1 0.0000 10.667242 16.153188 16.153188
95   1 0.0000 10.667242 16.153188 20.768385
96   1 0.0000 10.667242 16.153188 25.383581
97   1 0.0000  0.000000  0.000000  0.000000
98   1 0.0000  0.000000  0.000000  4.615197
99   1 0.0000  0.000000  0.000000  9.230393
100  1 0.0000  0.000000  0.000000 13.845590
101  1 0.0000  0.000000  0.000000 18.460786
102  1 0.0000  0.000000  0.000000 23.075983
103  1 0.0000  0.000000  4.615197  0.000000
104  1 0.0000  0.000000  4.615197  4.615197
105  1 0.0000  0.000000  4.615197  9.230393
106  1 0.0000  0.000000  4.615197 13.845590
107  1 0.0000  0.000000  4.615197 18.460786
108  1 0.0000  0.000000  4.615197 23.075983
109  1 0.0000  0.000000  9.230393  0.000000
110  1 0.0000  0.000000  9.230393  4.615197
111  1 0.0000  0.000000  9.230393  9.230393
112  1 0.0000  0.000000  9.230393 13.845590
113  1 0.0000  0.000000  9.230393 18.460786
114  1 0.0000  0.000000  9.230393 23.075983
115  1 0.0000  0.000000 13.845590  0.000000
116  1 0.0000  0.000000 13.845590  4.615197
117  1 0.0000  0.000000 13.845590  9.230393
118  1 0.0000  0.000000 13.845590 13.845590
119  1 0.0000  0.000000 13.845590 18.460786
120  1 0.0000  0.000000 13.845590 23.075983
121  1 0.0000  3.047784  0.000000  0.000000
122  1 0.0000  3.047784  0.000000  4.615197
123  1 0.0000  3.047784  0.000000  9.230393
124  1 0.0000  3.047784  0.000000 13.845590
125  1 0.0000  3.047784  0.000000 18.460786
126  1 0.0000  3.047784  0.000000 23.075983
127  1 0.0000  3.047784  4.615197  0.000000
128  1 0.0000  3.047784  4.615197  4.615197
129  1 0.0000  3.047784  4.615197  9.230393
130  1 0.0000  3.047784  4.615197 13.845590
131  1 0.0000  3.047784  4.615197 18.460786
132  1 0.0000  3.047784  4.615197 23.075983
133  1 0.0000  3.047784  9.230393  0.000000
134  1 0.0000  3.047784  9.230393  4.615197
135  1 0.0000  3.047784  9.230393  9.230393
136  1 0.0000  3.047784  9.230393 13.845590
137  1 0.0000  3.047784  9.230393 18.460786
138  1 0.0000  3.047784  9.230393 23.075983
139  1 0.0000  3.047784 13.845590  0.000000
140  1 0.0000  3.047784 13.845590  4.615197
141  1 0.0000  3.047784 13.845590  9.230393
142  1 0.0000  3.047784 13.845590 13.845590
143  1 0.0000  3.047784 13.845590 18.460786
144  1 0.0000  3.047784 13.845590 23.075983
145  1 0.0000  6.095567  0.000000  0.000000
146  1 0.0000  6.095567  0.000000  4.615197
147  1 0.0000  6.095567  0.000000  9.230393
148  1 0.0000  6.095567  0.000000 13.845590
149  1 0.0000  6.095567  0.000000 18.460786
150  1 0.0000  6.095567  0.000000 23.075983
151  1 0.0000  6.095567  4.615197  0.000000
152  1 0.0000  6.095567  4.615197  4.615197
153  1 0.0000  6.095567  4.615197  9.230393
154  1 0.0000  6.095567  4.615197 13.845590
155  1 0.0000  6.095567  4.615197 18.460786
156  1 0.0000  6.095567  4.615197 23.075983
157  1 0.0000  6.095567  9.230393  0.000000
158  1 0.0000  6.095567  9.230393  4.615197
159  1 0.0000  6.095567  9.230393  9.230393
160  1 0.0000  6.095567  9.230393 13.845590
161  1 0.0000  6.095567  9.230393 18.460786
162  1 0.0000  6.095567  9.230393 23.075983
163  1 0.0000  6.095567 13.845590  0.000000
164  1 0.0000  6.095567 13.845590  4.615197
165  1 0.0000  6.095567 13.845590  9.230393
166  1 0.0000  6.095567 13.845590 13.845590
167  1 0.0000  6.095567 13.845590 18.460786
168  1 0.0000  6.095567 13.845590 23.075983
169  1 0.0000  9.143351  0.000000  0.000000
170  1 0.0000  9.143351  0.000000  4.615197
171  1 0.0000  9.143351  0.000000  9.230393
172  1 0.0000  9.143351  0.000000 13.845590
173  1 0.0000  9.143351  0.000000 18.460786
174  1 0.0000  9.143351  0.000000 23.075983
175  1 0.0000  9.143351  4.615197  0.000000
176  1 0.0000  9.143351  4.615197  4.615197
177  1 0.0000  9.143351  4.615197  9.230393
178  1 0.0000  9.143351  4.615197 13.845590
179  1 0.0000  9.143351  4.615197 18.460786
180  1 0.0000  9.143351  4.615197 23.075983
181  1 0.0000  9.143351  9.230393  0.000000
182  1 0.0000  9.143351  9.230393  4.615197
183  1 0.0000  9.143351  9.230393  9.230393
184  1 0.0000  9.143351  9.230393 13.845590
185  1 0.0000  9.143351  9.230393 18.460786
186  1 0.0000  9.143351  9.230393 23.075983
187  1 0.0000  9.143351 13.845590  0.000000
188  1 0.0000  9.143351 13.845590  4.615197
189  1 0.0000  9.143351 13.845590  9.230393
190  1 0.0000  9.143351 13.845590 13.845590
191  1 0.0000  9.143351 13.845590 18.460786
192  1 0.0000  9.143351 13.845590 23.075983
193  2 0.0000  0.000000  3.217161  3.217161
194  2 0.0000  0.000000  3.217161  7.832357
195  2 0.0000  0.000000  3.217161 12.447554
196  2 0.0000  0.000000  3.217161 17.062750
197  2 0.0000  0.000000  3.217161 21.677947
198  2 0.0000  0.000000  3.217161 26.293144
199  2 0.0000  0.000000  7.832357  3.217161
200  2 0.0000  0.000000  7.832357  7.832357
201  2 0.0000  0.000000  7.832357 12.447554
202  2 0.0000  0.000000  7.832357 17.062750
203  2 0.0000  0.000000  7.832357 21.677947
204  2 0.0000  0.000000  7.832357 26.293144
205  2 0.0000  0.000000 12.447554  3.217161
206  2 0.0000  0.000000 12.447554  7.832357
207  2 0.0000  0.000000 12.447554 12.447554
208  2 0.0000  0.000000 12.447554 17.062750
209  2 0.0000  0.000000 12.447554 21.677947
210  2 0.0000  0.000000 12.447554 26.293144
211  2 0.0000  0.000000 17.062750  3.217161
212  2 0.0000  0.000000 17.062750  7.832357
213  2 0.0000  0.000000 17.062750 12.447554
214  2 0.0000  0.000000 17.062750 17.062750
215  2 0.0000  0.000000 17.062750 21.677947
216  2 0.0000  0.000000 17.062750 26.293144
217  2 0.0000  3.047784  3.217161  3.217161
218  2 0.0000  3.047784  3.217161  7.832357
219  2 0.0000  3.047784  3.217161 12.447554
220  2 0.0000  3.047784  3.217161 17.062750
221  2 0.0000  3.047784  3.217161 21.677947
222  2 0.0000  3.047784  3.217161 26.293144
223  2 0.0000  3.047784  7.832357  3.217161
224  2 0.0000  3.047784  7.832357  7.832357
225  2 0.0000  3.047784  7.832357 12.447554
226  2 0.0000  3.047784  7.832357 17.062750
227  2 0.0000  3.047784  7.832357 21.677947
228  2 0.0000  3.047784  7.832357 26.293144
229  2 0.0000  3.047784 12.447554  3.217161
230  2 0.0000  3.047784 12.447554  7.832357
231  2 0.0000  3.047784 12.447554 12.447554
232  2 0.0000  3.047784 12.447554 17.062750
233  2 0.0000  3.047784 12.447554 21.677947
234  2 0.0000  3.047784 12.447554 26.293144
235  2 0.0000  3.047784 17.062750  3.217161
236  2 0.0000  3.047784 17.062750  7.832357
237  2 0.0000  3.047784 17.062750 12.447554
238  2 0.0000  3.047784 17.062750 17.062750
239  2 0.0000  3.047784 17.062750 21.677947
240  2 0.0000  3.047784 17.062750 26.293144
241  2 0.0000  6.095567  3.217161  3.217161
242  2 0.0000  6.095567  3.217161  7.832357
243  2 0.0000  6.095567  3.217161 12.447554
244  2 0.0000  6.095567  3.217161 17.062750
245  2 0.0000  6.095567  3.217161 21.677947
246  2 0.0000  6.095567  3.217161 26.293144
247  2 0.0000  6.095567  7.832357  3.217161
248  2 0.0000  6.095567  7.832357  7.832357
249  2 0.0000  6.095567  7.832357 12.447554
250  2 0.0000  6.095567  7.832357 17.062750
251  2 0.0000  6.095567  7.832357 21.677947
252  2 0.0000  6.095567  7.832357 26.293144
253  2 0.0000  6.095567 12.447554  3.217161
254  2 0.0000  6.095567 12.447554  7.832357
255  2 0.0000  6.095567 12.447554 12.447554
256  2 0.0000  6.095567 12.447554 17.062750
257  2 0.0000  6.095567 12.447554 21.677947
258  2 0.0000  6.095567 12.447554 26.293144
259  2 0.0000  6.095567 17.062750  3.217161
260  2 0.0000  6.095567 17.062750  7.832357
261  2 0.0000  6.095567 17.062750 12.447554
262  2 0.0000  6.095567 17.062750 17.062750
263  2 0.0000  6.095567 17.062750 21.677947
264  2 0.0000  6.095567 17.062750 26.293144
265  2 0.0000  9.143351  3.217161  3.217161
266  2 0.0000  9.143351  3.217161  7.832357
267  2 0.0000  9.143351  3.217161 12.447554
268  2 0.0000  9.143351  3.217161 17.062750
269  2 0.0000  9.143351  3.217161 21.677947
270  2 0.0000  9.143351  3.217161 26.293144
271  2 0.0000  9.143351  7.832357  3.217161
272  2 0.0000  9.143351  7.832357  7.832357
273  2 0.0000  9.143351  7.832357 12.447554
274  2 0.0000  9.143351  7.832357 17.062750
275  2 0.0000  9.143351  7.832357 21.677947
276  2 0.0000  9.143351  7.832357 26.293144
277  2 0.0000  9.143351 12.447554  3.217161
278  2 0.0000  9.143351 12.447554  7.832357
279  2 0.0000  9.143351 12.447554 12.447554
280  2 0.0000  9.143351 12.447554 17.062750
281  2 0.0000  9.143351 12.447554 21.677947
282  2 0.0000  9.143351 12.447554 26.293144
283  2 0.0000  9.143351 17.062750  3.217161
284  2 0.0000  9.143351 17.062750  7.832357
285  2 0.0000  9.143351 17.062750 12.447554
286  2 0.0000  9.143351 17.062750 17.062750
287  2 0.0000  9.143351 17.062750 21.677947
288  2 0.0000  9.143351 17.062750 26.293144
289  2 0.0000  1.523892  3.705634  0.909562
290  2 0.0000  1.523892  3.705634  5.524759
291  2 0.0000  1.523892  3.705634 10.139956
292  2 0.0000  1.523892  3.705634 14.755152
293  2 0.0000  1.523892  3.705634 19.370349
294  2 0.0000  1.523892  3.705634 23.985545
295  2 0.0000  1.523892  8.320831  0.909562
296  2 0.0000  1.523892  8.320831  5.524759
297  2 0.0000  1.523892  8.320831 10.139956
298  2 0.0000  1.523892  8.320831 14.755152
299  2 0.0000  1.523892  8.320831 19.370349
300  2 0.0000  1.523892  8.320831 23.985545
301  2 0.0000  1.523892 12.936028  0.909562
302  2 0.0000  1.523892 12.936028  5.524759
303  2 0.0000  1.523892 12.936028 10.139956
304  2 0.0000  1.523892 12.936028 14.755152
305  2 0.0000  1.523892 12.936028 19.370349
306  2 0.0000  1.523892 12.936028 23.985545
307  2 0.0000  1.523892 17.551224  0.909562
308  2 0.0000  1.523892 17.551224  5.524759
309  2 0.0000  1.523892 17.551224 10.139956
310  2 0.0000  1.523892 17.551224 14.755152
311  2 0.0000  1.523892 17.551224 19.370349
312  2 0.0000  1.523892 17.551224 23.985545
313  2 0.0000  4.571675  3.705634  0.909562
314  2 0.0000  4.571675  3.705634  5.524759
315  2 0.0000  4.571675  3.705634 10.139956
316  2 0.0000  4.571675  3.705634 14.755152
317  2 0.0000  4.571675  3.705634 19.370349
318  2 0.0000  4.571675  3.705634 23.985545
319  2 0.0000  4.571675  8.320831  0.909562
320  2 0.0000  4.571675  8.320831  5.524759
321  2 0.0000  4.571675  8.320831 10.139956
322  2 0.0000  4.571675  8.320831 14.755152
323  2 0.0000  4.571675  8.320831 19.370349
324  2 0.0000  4.571675  8.320831 23.985545
325  2 0.0000  4.571675 12.936028  0.909562
326  2 0.0000  4.571675 12.936028  5.524759
327  2 0.0000  4.571675 12.936028 10.139956
328  2 0.0000  4.571675 12.936028 14.755152
329  2 0.0000  4.571675 12.936028 19.370349
330  2 0.0000  4.571675 12.936028 23.985545
331  2 0.0000  4.571675 17.551224  0.909562
332  2 0.0000  4.571675 17.551224  5.524759
333  2 0.0000  4.571675 17.551224 10.139956
334  2 0.0000  4.571675 17.551224 14.755152
335  2 0.0000  4.571675 17.551224 19.370349
336  2 0.0000  4.571675 17.551224 23.985545
337  2 0.0000  7.619459  3.705634  0.909562
338  2 0.0000  7.619459  3.705634  5.524759
339  2 0.0000  7.619459  3.705634 10.139956
340  2 0.0000  7.619459  3.705634 14.755152
341  2 0.0000  7.619459  3.705634 19.370349
342  2 0.0000  7.619459  3.705634 23.985545
343  2 0.0000  7.619459  8.320831  0.909562
344  2 0.0000  7.619459  8.320831  5.524759
345  2 0.0000  7.619459  8.320831 10.139956
346  2 0.0000  7.619459  8.320831 14.755152
347  2 0.0000  7.619459  8.320831 19.370349
348  2 0.0000  7.619459  8.320831 23.985545
349  2 0.0000  7.619459 12.936028  0.909562
350  2 0.0000  7.619459 12.936028  5.524759
351  2 0.0000  7.619459 12.936028 10.139956
352  2 0.0000  7.619459 12.936028 14.755152
353  2 0.0000  7.619459 12.936028 19.370349
354  2 0.0000  7.619459 12.936028 23.985545
355  2 0.0000  7.619459 17.551224  0.909562
356  2 0.0000  7.619459 17.551224  5.524759
357  2 0.0000  7.619459 17.551224 10.139956
358  2 0.0000  7.619459 17.551224 14.755152
359  2 0.0000  7.619459 17.551224 19.370349
360  2 0.0000  7.619459 17.551224 23.985545
361  2 0.0000 10.667242  3.705634  0.909562
362  2 0.0000 10.667242  3.705634  5.524759
363  2 0.0000 10.667242  3.705634 10.139956
364  2 0.0000 10.667242  3.705634 14.755152
365  2 0.0000 10.667242  3.705634 19.370349
366  2 0.0000 10.667242  3.705634 23.985545
367  2 0.0000 10.667242  8.320831  0.909562
368  2 0.0000 10.667242  8.320831  5.524759
369  2 0.0000 10.667242  8.320831 10.139956
370  2 0.0000 10.667242  8.320831 14.755152
371  2 0.0000 10.667242  8.320831 19.370349
372  2 0.0000 10.667242  8.320831 23.985545
373  2 0.0000 10.667242 12.936028  0.909562
374  2 0.0000 10.667242 12.936028  5.524759
375  2 0.0000 10.667242 12.936028 10.139956
376  2 0.0000 10.667242 12.936028 14.755152
377  2 0.0000 10.667242 12.936028 19.370349
378  2 0.0000 10.667242 12.936028 23.985545
379  2 0.0000 10.667242 17.551224  0.909562
380  2 0.0000 10.667242 17.551224  5.524759
381  2 0.0000 10.667242 17.551224 10.139956
382  2 0.0000 10.667242 17.551224 14.755152
383  2 0.0000 10.667242 17.551224 19.370349
384  2 0.0000 10.667242 17.551224 23.985545
385  2 0.0000  0.000000  1.398036  1.398036
386  2 0.0000  0.000000  1.398036  6.013233
387  2 0.0000  0.000000  1.398036 10.628429
388  2 0.0000  0.000000  1.398036 15.243626
389  2 0.0000  0.000000  1.398036 19.858822
390  2 0.0000  0.000000  1.398036 24.474019
391  2 0.0000  0.000000  6.013233  1.398036
392  2 0.0000  0.000000  6.013233  6.013233
393  2 0.0000  0.000000  6.013233 10.628429
394  2 0.0000  0.000000  6.013233 15.243626
395  2 0.0000  0.000000  6.013233 19.858822
396  2 0.0000  0.000000  6.013233 24.474019
397  2 0.0000  0.000000 10.628429  1.398036
398  2 0.0000  0.000000 10.628429  6.013233
399  2 0.0000  0.000000 10.628429 10.628429
400  2 0.0000  0.000000 10.628429 15.243626
401  2 0.0000  0.000000 10.628429 19.858822
402  2 0.0000  0.000000 10.628429 24.474019
403  2 0.0000  0.000000 15.243626  1.398036
404  2 0.0000  0.000000 15.243626  6.013233
405  2 0.0000  0.000000 15.243626 10.628429
406  2 0.0000  0.000000 15.243626 15.243626
407  2 0.0000  0.000000 15.243626 19.858822
408  2 0.0000  0.000000 15.243626 24.474019
409  2 0.0000  3.047784  1.398036  1.398036
410  2 0.0000  3.047784  1.398036  6.013233
411  2 0.0000  3.047784  1.398036 10.628429
412  2 0.0000  3.047784  1.398036 15.243626
413  2 0.0000  3.047784  1.398036 19.858822
414  2 0.0000  3.047784  1.398036 24.474019
415  2 0.0000  3.047784  6.013233  1.398036
416  2 0.0000  3.047784  6.013233  6.013233
417  2 0.0000  3.047784  6.013233 10.628429
418  2 0.0000  3.047784  6.013233 15.243626
419  2 0.0000  3.047784  6.013233 19.858822
420  2 0.0000  3.047784  6.013233 24.474019
421  2 0.0000  3.047784 10.628429  1.398036
422  2 0.0000  3.047784 10.628429  6.013233
423  2 0.0000  3.047784 10.628429 10.628429
424  2 0.0000  3.047784 10.628429 15.243626
425  2 0.0000  3.047784 10.628429 19.858822
426  2 0.0000  3.047784 10.628429 24.474019
427  2 0.0000  3.047784 15.243626  1.398036
428  2 0.0000  3.047784 15.243626  6.013233
429  2 0.0000  3.047784 15.243626 10.628429
430  2 0.0000  3.047784 15.243626 15.243626
431  2 0.0000  3.047784 15.243626 19.858822
432  2 0.0000  3.047784 15.243626 24.474019
433  2 0.0000  6.095567  1.398036  1.398036
434  2 0.0000  6.095567  1.398036  6.013233
435  2 0.0000  6.095567  1.398036 10.628429
436  2 0.0000  6.095567  1.398036 15.243626
437  2 0.0000  6.095567  1.398036 19.858822
438  2 0.0000  6.095567  1.398036 24.474019
439  2 0.0000  6.095567  6.013233  1.398036
440  2 0.0000  6.095567  6.013233  6.013233
441  2 0.0000  6.095567  6.013233 10.628429
442  2 0.0000  6.095567  6.013233 15.243626
443  2 0.0000  6.095567  6.013233 19.858822
444  2 0.0000  6.095567  6.013233 24.474019
445  2 0.0000  6.095567 10.628429  1.398036
446  2 0.0000  6.095567 10.628429  6.013233
447  2 0.0000  6.095567 10.628429 10.628429
448  2 0.0000  6.095567 10.628429 15.243626
449  2 0.0000  6.095567 10.628429 19.858822
450  2 0.0000  6.095567 10.628429 24.474019
451  2 0.0000  6.095567 15.243626  1.398036
452  2 0.0000  6.095567 15.243626  6.013233
453  2 0.0000  6.095567 15.243626 10.628429
454  2 0.0000  6.095567 15.243626 15.243626
455  2 0.0000  6.095567 15.243626 19.858822
456  2 0.0000  6.095567 15.243626 24.474019
457  2 0.0000  9.143351  1.398036  1.398036
458  2 0.0000  9.143351  1.398036  6.013233
459  2 0.0000  9.143351  1.398036 10.628429
460  2 0.0000  9.143351  1.398036 15.243626
461  2 0.0000  9.143351  1.398036 19.858822
462  2 0.0000  9.143351  1.398036 24.474019
463  2 0.0000  9.143351  6.013233  1.398036
464  2 0.0000  9.143351  6.013233  6.013233
465  2 0.0000  9.143351  6.013233 10.628429
466  2 0.0000  9.143351  6.013233 15.243626
467  2 0.0000  9.143351  6.013233 19.858822
468  2 0.0000  9.143351  6.013233 24.474019
469  2 0.0000  9.143351 10.628429  1.398036
470  2 0.0000  9.143351 10.628429  6.013233
471  2 0.0000  9.143351 10.628429 10.628429
472  2 0.0000  9.143351 10.628429 15.243626
473  2 0.0000  9.143351 10.628429 19.858822
474  2 0.0000  9.143351 10.628429 24.474019
475  2 0.0000  9.143351 15.243626  1.398036
476  2 0.0000  9.143351 15.243626  6.013233
477  2 0.0000  9.143351 15.243626 10.628429
478  2 0.0000  9.143351 15.243626 15.243626
479  2 0.0000  9.143351 15.243626 19.858822
480  2 0.0000  9.143351 15.243626 24.474019
481  2 0.0000  1.523892  0.909562  3.705634
482  2 0.0000  1.523892  0.909562  8.320831
483  2 0.0000  1.523892  0.909562 12.936028
484  2 0.0000  1.523892  0.909562 17.551224
485  2 0.0000  1.523892  0.909562 22.166421
486  2 0.0000  1.523892  0.909562 26.781617
487  2 0.0000  1.523892  5.524759  3.705634
488  2 0.0000  1.523892  5.524759  8.320831
489  2 0.0000  1.523892  5.524759 12.936028
490  2 0.0000  1.523892  5.524759 17.551224
491  2 0.0000  1.523892  5.524759 22.166421
492  2 0.0000  1.523892  5.524759 26.781617
493  2 0.0000  1.523892 10.139956  3.705634
494  2 0.0000  1.523892 10.139956  8.320831
495  2 0.0000  1.523892 10.139956 12.936028
496  2 0.0000  1.523892 10.139956 17.551224
497  2 0.0000  1.523892 10.139956 22.166421
498  2 0.0000  1.523892 10.139956 26.781617
499  2 0.0000  1.523892 14.755152  3.705634
500  2 0.0000  1.523892 14.755152  8.320831
501  2 0.0000  1.523892 14.755152 12.936028
502  2 0.0000  1.523892 14.755152 17.551224
503  2 0.0000  1.523892 14.755152 22.166421
504  2 0.0000  1.523892 14.755152 26.781617
505  2 0.0000  4.571675  0.909562  3.705634
506  2 0.0000  4.571675  0.909562  8.320831
507  2 0.0000  4.571675  0.909562 12.936028
508  2 0.0000  4.571675  0.909562 17.551224
509  2 0.0000  4.571675  0.909562 22.166421
510  2 0.0000  4.571675  0.909562 26.781617
511  2 0.0000  4.571675  5.524759  3.705634
512  2 0.0000  4.571675  5.524759  8.320831
513  2 0.0000  4.571675  5.524759 12.936028
514  2 0.0000  4.571675  5.524759 17.551224
515  2 0.0000  4.571675  5.524759 22.166421
516  2 0.0000  4.571675  5.524759 26.781617
517  2 0.0000  4.571675 10.139956  3.705634
518  2 0.0000  4.571675 10.139956  8.320831
519  2 0.0000  4.571675 10.139956 12.936028
520  2 0.0000  4.571675 10.139956 17.551224
521  2 0.0000  4.571675 10.139956 22.166421
522  2 0.0000  4.571675 10.139956 26.781617
523  2 0.0000  4.571675 14.755152  3.705634
524  2 0.0000  4.571675 14.755152  8.320831
525  2 0.0000  4.571675 14.755152 12.936028
526  2 0.0000  4.571675 14.755152 17.551224
527  2 0.0000  4.571675 14.755152 22.166421
528  2 0.0000  4.571675 14.755152 26.781617
529  2 0.0000  7.619459  0.909562  3.705634
530  2 0.0000  7.619459  0.909562  8.320831
531  2 0.0000  7.619459  0.909562 12.936028
532  2 0.0000  7.619459  0.909562 17.551224
533  2 0.0000  7.619459  0.909562 22.166421
534  2 0.0000  7.619459  0.909562 26.781617
535  2 0.0000  7.619459  5.524759  3.705634
536  2 0.0000  7.619459  5.524759  8.320831
537  2 0.0000  7.619459  5.524759 12.936028
538  2 0.0000  7.619459  5.524759 17.551224
539  2 0.0000  7.619459  5.524759 22.166421
540  2 0.0000  7.619459  5.524759 26.781617
541  2 0.0000  7.619459 10.139956  3.705634
542  2 0.0000  7.619459 10.139956  8.320831
543  2 0.0000  7.619459 10.139956 12.936028
544  2 0.0000  7.619459 10.139956 17.551224
545  2 0.0000  7.619459 10.139956 22.166421
546  2 0.0000  7.619459 10.139956 26.781617
547  2 0.0000  7.619459 14.755152  3.705634
548  2 0.0000  7.619459 14.755152  8.320831
549  2 0.0000  7.619459 14.755152 12.936028
550  2 0.0000  7.619459 14.755152 17.551224
551  2 0.0000  7.619459 14.755152 22.166421
552  2 0.0000  7.619459 14.755152 26.781617
553  2 0.0000 10.667242  0.909562  3.705634
554  2 0.0000 10.667242  0.909562  8.320831
555  2 0.0000 10.667242  0.909562 12.936028
556  2 0.0000 10.667242  0.909562 17.551224
557  2 0.0000 10.667242  0.909562 22.166421
558  2 0.0000 10.667242  0.909562 26.781617
559  2 0.0000 10.667242  5.524759  3.705634
560  2 0.0000 10.667242  5.524759  8.320831
561  2 0.0000 10.667242  5.524759 12.936028
562  2 0.0000 10.667242  5.524759 17.551224
563  2 0.0000 10.667242  5.524759 22.166421
564  2 0.0000 10.667242  5.524759 26.781617
565  2 0.0000 10.667242 10.139956  3.705634
566  2 0.0000 10.667242 10.139956  8.320831
567  2 0.0000 10.667242 10.139956 12.936028
568  2 0.0000 10.667242 10.139956 17.551224
569  2 0.0000 10.667242 10.139956 22.166421
570  2 0.0000 10.667242 10.139956 26.781617
571  2 0.0000 10.667242 14.755152  3.705634
572  2 0.0000 10.667242 14.755152  8.320831
573  2 0.0000 10.667242 14.755152 12.936028
574  2 0.0000 10.667242 14.755152 17.551224
575  2 0.0000 10.667242 14.755152 22.166421
576  2 0.0000 10.667242 14.755152 26.781617

