Generated by pymatgen.io.lammps.data.LammpsData

64  atoms

 3  atom types

0.000000 13.609149  xlo xhi
0.000000 6.685013  ylo yhi
0.000000 11.832855  zlo zhi
11.854094 23.708188 6.224249  xy xz yz

Masses

1   85.46780
2  164.93032
3   15.99940

Atoms

1   1 0.0000  0.000000  0.000000  0.000000
2   1 0.0000  5.927047  1.556062  2.958214
3   1 0.0000 11.854094  3.112124  5.916427
4   1 0.0000 17.781141  4.668187  8.874641
5   1 0.0000  5.927047  3.342507  0.000000
6   1 0.0000 11.854094  4.898569  2.958214
7   1 0.0000 17.781141  6.454631  5.916427
8   1 0.0000 23.708188  8.010693  8.874641
9   1 0.0000  6.804575  0.000000  0.000000
10  1 0.0000 12.731622  1.556062  2.958214
11  1 0.0000 18.658669  3.112124  5.916427
12  1 0.0000 24.585716  4.668187  8.874641
13  1 0.0000 12.731621  3.342507  0.000000
14  1 0.0000 18.658668  4.898569  2.958214
15  1 0.0000 24.585715  6.454631  5.916427
16  1 0.0000 30.512762  8.010693  8.874641
17  2 0.0000  9.329334  2.449284  1.479107
18  2 0.0000 15.256381  4.005347  4.437321
19  2 0.0000 21.183428  5.561409  7.395534
20  2 0.0000 27.110475  7.117471 10.353748
21  2 0.0000 15.256381  5.791791  1.479107
22  2 0.0000 21.183428  7.347853  4.437321
23  2 0.0000 27.110475  8.903916  7.395534
24  2 0.0000 33.037522 10.459978 10.353748
25  2 0.0000 16.133909  2.449284  1.479107
26  2 0.0000 22.060956  4.005347  4.437321
27  2 0.0000 27.988003  5.561409  7.395534
28  2 0.0000 33.915050  7.117471 10.353748
29  2 0.0000 22.060956  5.791791  1.479107
30  2 0.0000 27.988003  7.347853  4.437321
31  2 0.0000 33.915050  8.903916  7.395534
32  2 0.0000 39.842097 10.459978 10.353748
33  3 0.0000 14.461226  3.796590  2.292736
34  3 0.0000 20.388273  5.352652  5.250949
35  3 0.0000 26.315320  6.908714  8.209163
36  3 0.0000 32.242367  8.464776 11.167377
37  3 0.0000 20.388273  7.139097  2.292736
38  3 0.0000 26.315320  8.695159  5.250949
39  3 0.0000 32.242367 10.251221  8.209163
40  3 0.0000 38.169414 11.807283 11.167377
41  3 0.0000 21.265800  3.796590  2.292736
42  3 0.0000 27.192847  5.352652  5.250949
43  3 0.0000 33.119894  6.908714  8.209163
44  3 0.0000 39.046941  8.464776 11.167377
45  3 0.0000 27.192847  7.139097  2.292736
46  3 0.0000 33.119894  8.695159  5.250949
47  3 0.0000 39.046941 10.251221  8.209163
48  3 0.0000 44.973988 11.807283 11.167377
49  3 0.0000  4.197442  1.101979  0.665478
50  3 0.0000 10.124489  2.658041  3.623692
51  3 0.0000 16.051536  4.214103  6.581905
52  3 0.0000 21.978583  5.770166  9.540119
53  3 0.0000 10.124489  4.444486  0.665478
54  3 0.0000 16.051536  6.000548  3.623692
55  3 0.0000 21.978583  7.556610  6.581905
56  3 0.0000 27.905630  9.112672  9.540119
57  3 0.0000 11.002017  1.101979  0.665478
58  3 0.0000 16.929064  2.658041  3.623692
59  3 0.0000 22.856111  4.214103  6.581905
60  3 0.0000 28.783158  5.770166  9.540119
61  3 0.0000 16.929064  4.444486  0.665478
62  3 0.0000 22.856111  6.000548  3.623692
63  3 0.0000 28.783158  7.556610  6.581905
64  3 0.0000 34.710205  9.112672  9.540119

