Generated by pymatgen.io.lammps.data.LammpsData

384  atoms

  3  atom types

0.000000 27.218298  xlo xhi
0.000000 13.370027  ylo yhi
0.000000 17.749282  zlo zhi
23.708187 35.562282 9.336373  xy xz yz

Masses

1   85.46780
2  164.93032
3   15.99940

Atoms

1    1 0.0000  0.000000  0.000000  0.000000
2    1 0.0000  5.927047  1.556062  2.958214
3    1 0.0000 11.854094  3.112124  5.916427
4    1 0.0000 17.781141  4.668187  8.874641
5    1 0.0000 23.708188  6.224249 11.832855
6    1 0.0000 29.635235  7.780311 14.791068
7    1 0.0000  5.927047  3.342507  0.000000
8    1 0.0000 11.854094  4.898569  2.958214
9    1 0.0000 17.781141  6.454631  5.916427
10   1 0.0000 23.708188  8.010693  8.874641
11   1 0.0000 29.635235  9.566755 11.832855
12   1 0.0000 35.562282 11.122818 14.791068
13   1 0.0000 11.854094  6.685013  0.000000
14   1 0.0000 17.781141  8.241076  2.958214
15   1 0.0000 23.708188  9.797138  5.916427
16   1 0.0000 29.635235 11.353200  8.874641
17   1 0.0000 35.562282 12.909262 11.832855
18   1 0.0000 41.489329 14.465324 14.791068
19   1 0.0000 17.781140 10.027520  0.000000
20   1 0.0000 23.708187 11.583582  2.958214
21   1 0.0000 29.635234 13.139645  5.916427
22   1 0.0000 35.562281 14.695707  8.874641
23   1 0.0000 41.489328 16.251769 11.832855
24   1 0.0000 47.416375 17.807831 14.791068
25   1 0.0000  6.804575 -0.000000 -0.000000
26   1 0.0000 12.731622  1.556062  2.958214
27   1 0.0000 18.658669  3.112124  5.916427
28   1 0.0000 24.585716  4.668187  8.874641
29   1 0.0000 30.512763  6.224249 11.832855
30   1 0.0000 36.439810  7.780311 14.791068
31   1 0.0000 12.731621  3.342507 -0.000000
32   1 0.0000 18.658668  4.898569  2.958214
33   1 0.0000 24.585715  6.454631  5.916427
34   1 0.0000 30.512762  8.010693  8.874641
35   1 0.0000 36.439809  9.566755 11.832855
36   1 0.0000 42.366856 11.122818 14.791068
37   1 0.0000 18.658668  6.685013  0.000000
38   1 0.0000 24.585715  8.241076  2.958214
39   1 0.0000 30.512762  9.797138  5.916427
40   1 0.0000 36.439809 11.353200  8.874641
41   1 0.0000 42.366856 12.909262 11.832855
42   1 0.0000 48.293903 14.465324 14.791068
43   1 0.0000 24.585715 10.027520  0.000000
44   1 0.0000 30.512762 11.583582  2.958214
45   1 0.0000 36.439809 13.139645  5.916427
46   1 0.0000 42.366856 14.695707  8.874641
47   1 0.0000 48.293903 16.251769 11.832855
48   1 0.0000 54.220950 17.807831 14.791068
49   1 0.0000 13.609149 -0.000000 -0.000000
50   1 0.0000 19.536196  1.556062  2.958214
51   1 0.0000 25.463243  3.112124  5.916427
52   1 0.0000 31.390290  4.668187  8.874641
53   1 0.0000 37.317337  6.224249 11.832855
54   1 0.0000 43.244384  7.780311 14.791068
55   1 0.0000 19.536196  3.342507 -0.000000
56   1 0.0000 25.463243  4.898569  2.958214
57   1 0.0000 31.390290  6.454631  5.916427
58   1 0.0000 37.317337  8.010693  8.874641
59   1 0.0000 43.244384  9.566755 11.832855
60   1 0.0000 49.171431 11.122818 14.791068
61   1 0.0000 25.463243  6.685013 -0.000000
62   1 0.0000 31.390290  8.241076  2.958214
63   1 0.0000 37.317337  9.797138  5.916427
64   1 0.0000 43.244384 11.353200  8.874641
65   1 0.0000 49.171431 12.909262 11.832855
66   1 0.0000 55.098478 14.465324 14.791068
67   1 0.0000 31.390290 10.027520  0.000000
68   1 0.0000 37.317337 11.583582  2.958214
69   1 0.0000 43.244384 13.139645  5.916427
70   1 0.0000 49.171431 14.695707  8.874641
71   1 0.0000 55.098478 16.251769 11.832855
72   1 0.0000 61.025525 17.807831 14.791068
73   1 0.0000 20.413724 -0.000000 -0.000000
74   1 0.0000 26.340771  1.556062  2.958214
75   1 0.0000 32.267818  3.112124  5.916427
76   1 0.0000 38.194865  4.668187  8.874641
77   1 0.0000 44.121912  6.224249 11.832855
78   1 0.0000 50.048959  7.780311 14.791068
79   1 0.0000 26.340771  3.342507 -0.000000
80   1 0.0000 32.267818  4.898569  2.958214
81   1 0.0000 38.194865  6.454631  5.916427
82   1 0.0000 44.121912  8.010693  8.874641
83   1 0.0000 50.048959  9.566755 11.832855
84   1 0.0000 55.976006 11.122818 14.791068
85   1 0.0000 32.267817  6.685013  0.000000
86   1 0.0000 38.194864  8.241076  2.958214
87   1 0.0000 44.121911  9.797138  5.916427
88   1 0.0000 50.048958 11.353200  8.874641
89   1 0.0000 55.976005 12.909262 11.832855
90   1 0.0000 61.903052 14.465324 14.791068
91   1 0.0000 38.194864 10.027520  0.000000
92   1 0.0000 44.121911 11.583582  2.958214
93   1 0.0000 50.048958 13.139645  5.916427
94   1 0.0000 55.976005 14.695707  8.874641
95   1 0.0000 61.903052 16.251769 11.832855
96   1 0.0000 67.830099 17.807831 14.791068
97   2 0.0000  9.329334  2.449284  1.479107
98   2 0.0000 15.256381  4.005347  4.437321
99   2 0.0000 21.183428  5.561409  7.395534
100  2 0.0000 27.110475  7.117471 10.353748
101  2 0.0000 33.037522  8.673533 13.311962
102  2 0.0000 38.964569 10.229595 16.270175
103  2 0.0000 15.256381  5.791791  1.479107
104  2 0.0000 21.183428  7.347853  4.437321
105  2 0.0000 27.110475  8.903916  7.395534
106  2 0.0000 33.037522 10.459978 10.353748
107  2 0.0000 38.964569 12.016040 13.311962
108  2 0.0000 44.891616 13.572102 16.270175
109  2 0.0000 21.183428  9.134298  1.479107
110  2 0.0000 27.110475 10.690360  4.437321
111  2 0.0000 33.037522 12.246422  7.395534
112  2 0.0000 38.964569 13.802484 10.353748
113  2 0.0000 44.891616 15.358547 13.311962
114  2 0.0000 50.818663 16.914609 16.270175
115  2 0.0000 27.110475 12.476805  1.479107
116  2 0.0000 33.037522 14.032867  4.437321
117  2 0.0000 38.964569 15.588929  7.395534
118  2 0.0000 44.891616 17.144991 10.353748
119  2 0.0000 50.818663 18.701053 13.311962
120  2 0.0000 56.745710 20.257116 16.270175
121  2 0.0000 16.133909  2.449284  1.479107
122  2 0.0000 22.060956  4.005347  4.437321
123  2 0.0000 27.988003  5.561409  7.395534
124  2 0.0000 33.915050  7.117471 10.353748
125  2 0.0000 39.842097  8.673533 13.311962
126  2 0.0000 45.769144 10.229595 16.270175
127  2 0.0000 22.060956  5.791791  1.479107
128  2 0.0000 27.988003  7.347853  4.437321
129  2 0.0000 33.915050  8.903916  7.395534
130  2 0.0000 39.842097 10.459978 10.353748
131  2 0.0000 45.769144 12.016040 13.311962
132  2 0.0000 51.696191 13.572102 16.270175
133  2 0.0000 27.988002  9.134298  1.479107
134  2 0.0000 33.915049 10.690360  4.437321
135  2 0.0000 39.842096 12.246422  7.395534
136  2 0.0000 45.769143 13.802484 10.353748
137  2 0.0000 51.696190 15.358547 13.311962
138  2 0.0000 57.623237 16.914609 16.270175
139  2 0.0000 33.915049 12.476805  1.479107
140  2 0.0000 39.842096 14.032867  4.437321
141  2 0.0000 45.769143 15.588929  7.395534
142  2 0.0000 51.696190 17.144991 10.353748
143  2 0.0000 57.623237 18.701053 13.311962
144  2 0.0000 63.550284 20.257116 16.270175
145  2 0.0000 22.938483  2.449284  1.479107
146  2 0.0000 28.865530  4.005347  4.437321
147  2 0.0000 34.792577  5.561409  7.395534
148  2 0.0000 40.719624  7.117471 10.353748
149  2 0.0000 46.646671  8.673533 13.311962
150  2 0.0000 52.573718 10.229595 16.270175
151  2 0.0000 28.865530  5.791791  1.479107
152  2 0.0000 34.792577  7.347853  4.437321
153  2 0.0000 40.719624  8.903916  7.395534
154  2 0.0000 46.646671 10.459978 10.353748
155  2 0.0000 52.573718 12.016040 13.311962
156  2 0.0000 58.500765 13.572102 16.270175
157  2 0.0000 34.792577  9.134298  1.479107
158  2 0.0000 40.719624 10.690360  4.437321
159  2 0.0000 46.646671 12.246422  7.395534
160  2 0.0000 52.573718 13.802484 10.353748
161  2 0.0000 58.500765 15.358547 13.311962
162  2 0.0000 64.427812 16.914609 16.270175
163  2 0.0000 40.719624 12.476805  1.479107
164  2 0.0000 46.646671 14.032867  4.437321
165  2 0.0000 52.573718 15.588929  7.395534
166  2 0.0000 58.500765 17.144991 10.353748
167  2 0.0000 64.427812 18.701053 13.311962
168  2 0.0000 70.354859 20.257116 16.270175
169  2 0.0000 29.743058  2.449284  1.479107
170  2 0.0000 35.670105  4.005347  4.437321
171  2 0.0000 41.597152  5.561409  7.395534
172  2 0.0000 47.524199  7.117471 10.353748
173  2 0.0000 53.451246  8.673533 13.311962
174  2 0.0000 59.378293 10.229595 16.270175
175  2 0.0000 35.670105  5.791791  1.479107
176  2 0.0000 41.597152  7.347853  4.437321
177  2 0.0000 47.524199  8.903916  7.395534
178  2 0.0000 53.451246 10.459978 10.353748
179  2 0.0000 59.378293 12.016040 13.311962
180  2 0.0000 65.305340 13.572102 16.270175
181  2 0.0000 41.597152  9.134298  1.479107
182  2 0.0000 47.524199 10.690360  4.437321
183  2 0.0000 53.451246 12.246422  7.395534
184  2 0.0000 59.378293 13.802484 10.353748
185  2 0.0000 65.305340 15.358547 13.311962
186  2 0.0000 71.232387 16.914609 16.270175
187  2 0.0000 47.524198 12.476805  1.479107
188  2 0.0000 53.451245 14.032867  4.437321
189  2 0.0000 59.378292 15.588929  7.395534
190  2 0.0000 65.305339 17.144991 10.353748
191  2 0.0000 71.232386 18.701053 13.311962
192  2 0.0000 77.159433 20.257116 16.270175
193  3 0.0000 14.461226  3.796590  2.292736
194  3 0.0000 20.388273  5.352652  5.250949
195  3 0.0000 26.315320  6.908714  8.209163
196  3 0.0000 32.242367  8.464776 11.167377
197  3 0.0000 38.169414 10.020839 14.125591
198  3 0.0000 44.096461 11.576901 17.083804
199  3 0.0000 20.388273  7.139097  2.292736
200  3 0.0000 26.315320  8.695159  5.250949
201  3 0.0000 32.242367 10.251221  8.209163
202  3 0.0000 38.169414 11.807283 11.167377
203  3 0.0000 44.096461 13.363345 14.125591
204  3 0.0000 50.023508 14.919408 17.083804
205  3 0.0000 26.315320 10.481603  2.292736
206  3 0.0000 32.242367 12.037666  5.250949
207  3 0.0000 38.169414 13.593728  8.209163
208  3 0.0000 44.096461 15.149790 11.167377
209  3 0.0000 50.023508 16.705852 14.125591
210  3 0.0000 55.950554 18.261914 17.083804
211  3 0.0000 32.242366 13.824110  2.292736
212  3 0.0000 38.169413 15.380172  5.250949
213  3 0.0000 44.096460 16.936234  8.209163
214  3 0.0000 50.023507 18.492297 11.167377
215  3 0.0000 55.950554 20.048359 14.125591
216  3 0.0000 61.877601 21.604421 17.083804
217  3 0.0000 21.265800  3.796590  2.292736
218  3 0.0000 27.192847  5.352652  5.250949
219  3 0.0000 33.119894  6.908714  8.209163
220  3 0.0000 39.046941  8.464776 11.167377
221  3 0.0000 44.973988 10.020839 14.125591
222  3 0.0000 50.901035 11.576901 17.083804
223  3 0.0000 27.192847  7.139097  2.292736
224  3 0.0000 33.119894  8.695159  5.250949
225  3 0.0000 39.046941 10.251221  8.209163
226  3 0.0000 44.973988 11.807283 11.167377
227  3 0.0000 50.901035 13.363345 14.125591
228  3 0.0000 56.828082 14.919408 17.083804
229  3 0.0000 33.119894 10.481603  2.292736
230  3 0.0000 39.046941 12.037666  5.250949
231  3 0.0000 44.973988 13.593728  8.209163
232  3 0.0000 50.901035 15.149790 11.167377
233  3 0.0000 56.828082 16.705852 14.125591
234  3 0.0000 62.755129 18.261914 17.083804
235  3 0.0000 39.046941 13.824110  2.292736
236  3 0.0000 44.973988 15.380172  5.250949
237  3 0.0000 50.901035 16.936234  8.209163
238  3 0.0000 56.828082 18.492297 11.167377
239  3 0.0000 62.755129 20.048359 14.125591
240  3 0.0000 68.682176 21.604421 17.083804
241  3 0.0000 28.070375  3.796590  2.292736
242  3 0.0000 33.997422  5.352652  5.250949
243  3 0.0000 39.924469  6.908714  8.209163
244  3 0.0000 45.851516  8.464776 11.167377
245  3 0.0000 51.778563 10.020839 14.125591
246  3 0.0000 57.705610 11.576901 17.083804
247  3 0.0000 33.997422  7.139097  2.292736
248  3 0.0000 39.924469  8.695159  5.250949
249  3 0.0000 45.851516 10.251221  8.209163
250  3 0.0000 51.778563 11.807283 11.167377
251  3 0.0000 57.705610 13.363345 14.125591
252  3 0.0000 63.632657 14.919408 17.083804
253  3 0.0000 39.924469 10.481603  2.292736
254  3 0.0000 45.851516 12.037666  5.250949
255  3 0.0000 51.778563 13.593728  8.209163
256  3 0.0000 57.705610 15.149790 11.167377
257  3 0.0000 63.632657 16.705852 14.125591
258  3 0.0000 69.559704 18.261914 17.083804
259  3 0.0000 45.851516 13.824110  2.292736
260  3 0.0000 51.778563 15.380172  5.250949
261  3 0.0000 57.705609 16.936234  8.209163
262  3 0.0000 63.632656 18.492297 11.167377
263  3 0.0000 69.559703 20.048359 14.125591
264  3 0.0000 75.486750 21.604421 17.083804
265  3 0.0000 34.874950  3.796590  2.292736
266  3 0.0000 40.801997  5.352652  5.250949
267  3 0.0000 46.729044  6.908714  8.209163
268  3 0.0000 52.656091  8.464776 11.167377
269  3 0.0000 58.583138 10.020839 14.125591
270  3 0.0000 64.510185 11.576901 17.083804
271  3 0.0000 40.801996  7.139097  2.292736
272  3 0.0000 46.729043  8.695159  5.250949
273  3 0.0000 52.656090 10.251221  8.209163
274  3 0.0000 58.583137 11.807283 11.167377
275  3 0.0000 64.510184 13.363345 14.125591
276  3 0.0000 70.437231 14.919408 17.083804
277  3 0.0000 46.729043 10.481603  2.292736
278  3 0.0000 52.656090 12.037666  5.250949
279  3 0.0000 58.583137 13.593728  8.209163
280  3 0.0000 64.510184 15.149790 11.167377
281  3 0.0000 70.437231 16.705852 14.125591
282  3 0.0000 76.364278 18.261914 17.083804
283  3 0.0000 52.656090 13.824110  2.292736
284  3 0.0000 58.583137 15.380172  5.250949
285  3 0.0000 64.510184 16.936234  8.209163
286  3 0.0000 70.437231 18.492297 11.167377
287  3 0.0000 76.364278 20.048359 14.125591
288  3 0.0000 82.291325 21.604421 17.083804
289  3 0.0000  4.197442  1.101979  0.665478
290  3 0.0000 10.124489  2.658041  3.623692
291  3 0.0000 16.051536  4.214103  6.581905
292  3 0.0000 21.978583  5.770166  9.540119
293  3 0.0000 27.905630  7.326228 12.498333
294  3 0.0000 33.832677  8.882290 15.456546
295  3 0.0000 10.124489  4.444486  0.665478
296  3 0.0000 16.051536  6.000548  3.623692
297  3 0.0000 21.978583  7.556610  6.581905
298  3 0.0000 27.905630  9.112672  9.540119
299  3 0.0000 33.832677 10.668734 12.498333
300  3 0.0000 39.759724 12.224797 15.456546
301  3 0.0000 16.051536  7.786993  0.665478
302  3 0.0000 21.978583  9.343055  3.623692
303  3 0.0000 27.905630 10.899117  6.581905
304  3 0.0000 33.832677 12.455179  9.540119
305  3 0.0000 39.759724 14.011241 12.498333
306  3 0.0000 45.686771 15.567303 15.456546
307  3 0.0000 21.978583 11.129499  0.665478
308  3 0.0000 27.905630 12.685561  3.623692
309  3 0.0000 33.832677 14.241624  6.581905
310  3 0.0000 39.759724 15.797686  9.540119
311  3 0.0000 45.686771 17.353748 12.498333
312  3 0.0000 51.613818 18.909810 15.456546
313  3 0.0000 11.002017  1.101979  0.665478
314  3 0.0000 16.929064  2.658041  3.623692
315  3 0.0000 22.856111  4.214103  6.581905
316  3 0.0000 28.783158  5.770166  9.540119
317  3 0.0000 34.710205  7.326228 12.498333
318  3 0.0000 40.637252  8.882290 15.456546
319  3 0.0000 16.929064  4.444486  0.665478
320  3 0.0000 22.856111  6.000548  3.623692
321  3 0.0000 28.783158  7.556610  6.581905
322  3 0.0000 34.710205  9.112672  9.540119
323  3 0.0000 40.637252 10.668734 12.498333
324  3 0.0000 46.564299 12.224797 15.456546
325  3 0.0000 22.856111  7.786993  0.665478
326  3 0.0000 28.783158  9.343055  3.623692
327  3 0.0000 34.710205 10.899117  6.581905
328  3 0.0000 40.637252 12.455179  9.540119
329  3 0.0000 46.564299 14.011241 12.498333
330  3 0.0000 52.491346 15.567303 15.456546
331  3 0.0000 28.783157 11.129499  0.665478
332  3 0.0000 34.710204 12.685561  3.623692
333  3 0.0000 40.637251 14.241624  6.581905
334  3 0.0000 46.564298 15.797686  9.540119
335  3 0.0000 52.491345 17.353748 12.498333
336  3 0.0000 58.418392 18.909810 15.456546
337  3 0.0000 17.806592  1.101979  0.665478
338  3 0.0000 23.733639  2.658041  3.623692
339  3 0.0000 29.660686  4.214103  6.581905
340  3 0.0000 35.587733  5.770166  9.540119
341  3 0.0000 41.514780  7.326228 12.498333
342  3 0.0000 47.441827  8.882290 15.456546
343  3 0.0000 23.733638  4.444486  0.665478
344  3 0.0000 29.660685  6.000548  3.623692
345  3 0.0000 35.587732  7.556610  6.581905
346  3 0.0000 41.514779  9.112672  9.540119
347  3 0.0000 47.441826 10.668734 12.498333
348  3 0.0000 53.368873 12.224797 15.456546
349  3 0.0000 29.660685  7.786993  0.665478
350  3 0.0000 35.587732  9.343055  3.623692
351  3 0.0000 41.514779 10.899117  6.581905
352  3 0.0000 47.441826 12.455179  9.540119
353  3 0.0000 53.368873 14.011241 12.498333
354  3 0.0000 59.295920 15.567303 15.456546
355  3 0.0000 35.587732 11.129499  0.665478
356  3 0.0000 41.514779 12.685561  3.623692
357  3 0.0000 47.441826 14.241624  6.581905
358  3 0.0000 53.368873 15.797686  9.540119
359  3 0.0000 59.295920 17.353748 12.498333
360  3 0.0000 65.222967 18.909810 15.456546
361  3 0.0000 24.611166  1.101979  0.665478
362  3 0.0000 30.538213  2.658041  3.623692
363  3 0.0000 36.465260  4.214103  6.581905
364  3 0.0000 42.392307  5.770166  9.540119
365  3 0.0000 48.319354  7.326228 12.498333
366  3 0.0000 54.246401  8.882290 15.456546
367  3 0.0000 30.538213  4.444486  0.665478
368  3 0.0000 36.465260  6.000548  3.623692
369  3 0.0000 42.392307  7.556610  6.581905
370  3 0.0000 48.319354  9.112672  9.540119
371  3 0.0000 54.246401 10.668734 12.498333
372  3 0.0000 60.173448 12.224797 15.456546
373  3 0.0000 36.465260  7.786993  0.665478
374  3 0.0000 42.392307  9.343055  3.623692
375  3 0.0000 48.319354 10.899117  6.581905
376  3 0.0000 54.246401 12.455179  9.540119
377  3 0.0000 60.173448 14.011241 12.498333
378  3 0.0000 66.100495 15.567303 15.456546
379  3 0.0000 42.392307 11.129499  0.665478
380  3 0.0000 48.319354 12.685561  3.623692
381  3 0.0000 54.246401 14.241624  6.581905
382  3 0.0000 60.173448 15.797686  9.540119
383  3 0.0000 66.100495 17.353748 12.498333
384  3 0.0000 72.027542 18.909810 15.456546

