Generated by pymatgen.io.lammps.data.LammpsData

1152  atoms

   2  atom types

0.000000 15.703590  xlo xhi
0.000000 21.829745  ylo yhi
0.000000 44.256461  zlo zhi

Masses

1   28.0855
2  102.9055

Atoms

1     1 0.0000  0.981474  4.239075  2.904220
2     1 0.0000  0.981474  4.239075 10.280297
3     1 0.0000  0.981474  4.239075 17.656374
4     1 0.0000  0.981474  4.239075 25.032450
5     1 0.0000  0.981474  4.239075 32.408527
6     1 0.0000  0.981474  4.239075 39.784604
7     1 0.0000  0.981474  9.696512  2.904220
8     1 0.0000  0.981474  9.696512 10.280297
9     1 0.0000  0.981474  9.696512 17.656374
10    1 0.0000  0.981474  9.696512 25.032450
11    1 0.0000  0.981474  9.696512 32.408527
12    1 0.0000  0.981474  9.696512 39.784604
13    1 0.0000  0.981474 15.153948  2.904220
14    1 0.0000  0.981474 15.153948 10.280297
15    1 0.0000  0.981474 15.153948 17.656374
16    1 0.0000  0.981474 15.153948 25.032450
17    1 0.0000  0.981474 15.153948 32.408527
18    1 0.0000  0.981474 15.153948 39.784604
19    1 0.0000  0.981474 20.611384  2.904220
20    1 0.0000  0.981474 20.611384 10.280297
21    1 0.0000  0.981474 20.611384 17.656374
22    1 0.0000  0.981474 20.611384 25.032450
23    1 0.0000  0.981474 20.611384 32.408527
24    1 0.0000  0.981474 20.611384 39.784604
25    1 0.0000  4.907372  4.239075  2.904220
26    1 0.0000  4.907372  4.239075 10.280297
27    1 0.0000  4.907372  4.239075 17.656374
28    1 0.0000  4.907372  4.239075 25.032450
29    1 0.0000  4.907372  4.239075 32.408527
30    1 0.0000  4.907372  4.239075 39.784604
31    1 0.0000  4.907372  9.696512  2.904220
32    1 0.0000  4.907372  9.696512 10.280297
33    1 0.0000  4.907372  9.696512 17.656374
34    1 0.0000  4.907372  9.696512 25.032450
35    1 0.0000  4.907372  9.696512 32.408527
36    1 0.0000  4.907372  9.696512 39.784604
37    1 0.0000  4.907372 15.153948  2.904220
38    1 0.0000  4.907372 15.153948 10.280297
39    1 0.0000  4.907372 15.153948 17.656374
40    1 0.0000  4.907372 15.153948 25.032450
41    1 0.0000  4.907372 15.153948 32.408527
42    1 0.0000  4.907372 15.153948 39.784604
43    1 0.0000  4.907372 20.611384  2.904220
44    1 0.0000  4.907372 20.611384 10.280297
45    1 0.0000  4.907372 20.611384 17.656374
46    1 0.0000  4.907372 20.611384 25.032450
47    1 0.0000  4.907372 20.611384 32.408527
48    1 0.0000  4.907372 20.611384 39.784604
49    1 0.0000  8.833270  4.239075  2.904220
50    1 0.0000  8.833270  4.239075 10.280297
51    1 0.0000  8.833270  4.239075 17.656374
52    1 0.0000  8.833270  4.239075 25.032450
53    1 0.0000  8.833270  4.239075 32.408527
54    1 0.0000  8.833270  4.239075 39.784604
55    1 0.0000  8.833270  9.696512  2.904220
56    1 0.0000  8.833270  9.696512 10.280297
57    1 0.0000  8.833270  9.696512 17.656374
58    1 0.0000  8.833270  9.696512 25.032450
59    1 0.0000  8.833270  9.696512 32.408527
60    1 0.0000  8.833270  9.696512 39.784604
61    1 0.0000  8.833270 15.153948  2.904220
62    1 0.0000  8.833270 15.153948 10.280297
63    1 0.0000  8.833270 15.153948 17.656374
64    1 0.0000  8.833270 15.153948 25.032450
65    1 0.0000  8.833270 15.153948 32.408527
66    1 0.0000  8.833270 15.153948 39.784604
67    1 0.0000  8.833270 20.611384  2.904220
68    1 0.0000  8.833270 20.611384 10.280297
69    1 0.0000  8.833270 20.611384 17.656374
70    1 0.0000  8.833270 20.611384 25.032450
71    1 0.0000  8.833270 20.611384 32.408527
72    1 0.0000  8.833270 20.611384 39.784604
73    1 0.0000 12.759167  4.239075  2.904220
74    1 0.0000 12.759167  4.239075 10.280297
75    1 0.0000 12.759167  4.239075 17.656374
76    1 0.0000 12.759167  4.239075 25.032450
77    1 0.0000 12.759167  4.239075 32.408527
78    1 0.0000 12.759167  4.239075 39.784604
79    1 0.0000 12.759167  9.696512  2.904220
80    1 0.0000 12.759167  9.696512 10.280297
81    1 0.0000 12.759167  9.696512 17.656374
82    1 0.0000 12.759167  9.696512 25.032450
83    1 0.0000 12.759167  9.696512 32.408527
84    1 0.0000 12.759167  9.696512 39.784604
85    1 0.0000 12.759167 15.153948  2.904220
86    1 0.0000 12.759167 15.153948 10.280297
87    1 0.0000 12.759167 15.153948 17.656374
88    1 0.0000 12.759167 15.153948 25.032450
89    1 0.0000 12.759167 15.153948 32.408527
90    1 0.0000 12.759167 15.153948 39.784604
91    1 0.0000 12.759167 20.611384  2.904220
92    1 0.0000 12.759167 20.611384 10.280297
93    1 0.0000 12.759167 20.611384 17.656374
94    1 0.0000 12.759167 20.611384 25.032450
95    1 0.0000 12.759167 20.611384 32.408527
96    1 0.0000 12.759167 20.611384 39.784604
97    1 0.0000  2.944423  1.218361  4.471857
98    1 0.0000  2.944423  1.218361 11.847934
99    1 0.0000  2.944423  1.218361 19.224011
100   1 0.0000  2.944423  1.218361 26.600087
101   1 0.0000  2.944423  1.218361 33.976164
102   1 0.0000  2.944423  1.218361 41.352241
103   1 0.0000  2.944423  6.675797  4.471857
104   1 0.0000  2.944423  6.675797 11.847934
105   1 0.0000  2.944423  6.675797 19.224011
106   1 0.0000  2.944423  6.675797 26.600087
107   1 0.0000  2.944423  6.675797 33.976164
108   1 0.0000  2.944423  6.675797 41.352241
109   1 0.0000  2.944423 12.133233  4.471857
110   1 0.0000  2.944423 12.133233 11.847934
111   1 0.0000  2.944423 12.133233 19.224011
112   1 0.0000  2.944423 12.133233 26.600087
113   1 0.0000  2.944423 12.133233 33.976164
114   1 0.0000  2.944423 12.133233 41.352241
115   1 0.0000  2.944423 17.590669  4.471857
116   1 0.0000  2.944423 17.590669 11.847934
117   1 0.0000  2.944423 17.590669 19.224011
118   1 0.0000  2.944423 17.590669 26.600087
119   1 0.0000  2.944423 17.590669 33.976164
120   1 0.0000  2.944423 17.590669 41.352241
121   1 0.0000  6.870321  1.218361  4.471857
122   1 0.0000  6.870321  1.218361 11.847934
123   1 0.0000  6.870321  1.218361 19.224011
124   1 0.0000  6.870321  1.218361 26.600087
125   1 0.0000  6.870321  1.218361 33.976164
126   1 0.0000  6.870321  1.218361 41.352241
127   1 0.0000  6.870321  6.675797  4.471857
128   1 0.0000  6.870321  6.675797 11.847934
129   1 0.0000  6.870321  6.675797 19.224011
130   1 0.0000  6.870321  6.675797 26.600087
131   1 0.0000  6.870321  6.675797 33.976164
132   1 0.0000  6.870321  6.675797 41.352241
133   1 0.0000  6.870321 12.133233  4.471857
134   1 0.0000  6.870321 12.133233 11.847934
135   1 0.0000  6.870321 12.133233 19.224011
136   1 0.0000  6.870321 12.133233 26.600087
137   1 0.0000  6.870321 12.133233 33.976164
138   1 0.0000  6.870321 12.133233 41.352241
139   1 0.0000  6.870321 17.590669  4.471857
140   1 0.0000  6.870321 17.590669 11.847934
141   1 0.0000  6.870321 17.590669 19.224011
142   1 0.0000  6.870321 17.590669 26.600087
143   1 0.0000  6.870321 17.590669 33.976164
144   1 0.0000  6.870321 17.590669 41.352241
145   1 0.0000 10.796218  1.218361  4.471857
146   1 0.0000 10.796218  1.218361 11.847934
147   1 0.0000 10.796218  1.218361 19.224011
148   1 0.0000 10.796218  1.218361 26.600087
149   1 0.0000 10.796218  1.218361 33.976164
150   1 0.0000 10.796218  1.218361 41.352241
151   1 0.0000 10.796218  6.675797  4.471857
152   1 0.0000 10.796218  6.675797 11.847934
153   1 0.0000 10.796218  6.675797 19.224011
154   1 0.0000 10.796218  6.675797 26.600087
155   1 0.0000 10.796218  6.675797 33.976164
156   1 0.0000 10.796218  6.675797 41.352241
157   1 0.0000 10.796218 12.133233  4.471857
158   1 0.0000 10.796218 12.133233 11.847934
159   1 0.0000 10.796218 12.133233 19.224011
160   1 0.0000 10.796218 12.133233 26.600087
161   1 0.0000 10.796218 12.133233 33.976164
162   1 0.0000 10.796218 12.133233 41.352241
163   1 0.0000 10.796218 17.590669  4.471857
164   1 0.0000 10.796218 17.590669 11.847934
165   1 0.0000 10.796218 17.590669 19.224011
166   1 0.0000 10.796218 17.590669 26.600087
167   1 0.0000 10.796218 17.590669 33.976164
168   1 0.0000 10.796218 17.590669 41.352241
169   1 0.0000 14.722116  1.218361  4.471857
170   1 0.0000 14.722116  1.218361 11.847934
171   1 0.0000 14.722116  1.218361 19.224011
172   1 0.0000 14.722116  1.218361 26.600087
173   1 0.0000 14.722116  1.218361 33.976164
174   1 0.0000 14.722116  1.218361 41.352241
175   1 0.0000 14.722116  6.675797  4.471857
176   1 0.0000 14.722116  6.675797 11.847934
177   1 0.0000 14.722116  6.675797 19.224011
178   1 0.0000 14.722116  6.675797 26.600087
179   1 0.0000 14.722116  6.675797 33.976164
180   1 0.0000 14.722116  6.675797 41.352241
181   1 0.0000 14.722116 12.133233  4.471857
182   1 0.0000 14.722116 12.133233 11.847934
183   1 0.0000 14.722116 12.133233 19.224011
184   1 0.0000 14.722116 12.133233 26.600087
185   1 0.0000 14.722116 12.133233 33.976164
186   1 0.0000 14.722116 12.133233 41.352241
187   1 0.0000 14.722116 17.590669  4.471857
188   1 0.0000 14.722116 17.590669 11.847934
189   1 0.0000 14.722116 17.590669 19.224011
190   1 0.0000 14.722116 17.590669 26.600087
191   1 0.0000 14.722116 17.590669 33.976164
192   1 0.0000 14.722116 17.590669 41.352241
193   1 0.0000  0.981474  1.510357  0.783819
194   1 0.0000  0.981474  1.510357  8.159895
195   1 0.0000  0.981474  1.510357 15.535972
196   1 0.0000  0.981474  1.510357 22.912049
197   1 0.0000  0.981474  1.510357 30.288126
198   1 0.0000  0.981474  1.510357 37.664203
199   1 0.0000  0.981474  6.967793  0.783819
200   1 0.0000  0.981474  6.967793  8.159895
201   1 0.0000  0.981474  6.967793 15.535972
202   1 0.0000  0.981474  6.967793 22.912049
203   1 0.0000  0.981474  6.967793 30.288126
204   1 0.0000  0.981474  6.967793 37.664203
205   1 0.0000  0.981474 12.425230  0.783819
206   1 0.0000  0.981474 12.425230  8.159895
207   1 0.0000  0.981474 12.425230 15.535972
208   1 0.0000  0.981474 12.425230 22.912049
209   1 0.0000  0.981474 12.425230 30.288126
210   1 0.0000  0.981474 12.425230 37.664203
211   1 0.0000  0.981474 17.882666  0.783819
212   1 0.0000  0.981474 17.882666  8.159895
213   1 0.0000  0.981474 17.882666 15.535972
214   1 0.0000  0.981474 17.882666 22.912049
215   1 0.0000  0.981474 17.882666 30.288126
216   1 0.0000  0.981474 17.882666 37.664203
217   1 0.0000  4.907372  1.510357  0.783819
218   1 0.0000  4.907372  1.510357  8.159895
219   1 0.0000  4.907372  1.510357 15.535972
220   1 0.0000  4.907372  1.510357 22.912049
221   1 0.0000  4.907372  1.510357 30.288126
222   1 0.0000  4.907372  1.510357 37.664203
223   1 0.0000  4.907372  6.967793  0.783819
224   1 0.0000  4.907372  6.967793  8.159895
225   1 0.0000  4.907372  6.967793 15.535972
226   1 0.0000  4.907372  6.967793 22.912049
227   1 0.0000  4.907372  6.967793 30.288126
228   1 0.0000  4.907372  6.967793 37.664203
229   1 0.0000  4.907372 12.425230  0.783819
230   1 0.0000  4.907372 12.425230  8.159895
231   1 0.0000  4.907372 12.425230 15.535972
232   1 0.0000  4.907372 12.425230 22.912049
233   1 0.0000  4.907372 12.425230 30.288126
234   1 0.0000  4.907372 12.425230 37.664203
235   1 0.0000  4.907372 17.882666  0.783819
236   1 0.0000  4.907372 17.882666  8.159895
237   1 0.0000  4.907372 17.882666 15.535972
238   1 0.0000  4.907372 17.882666 22.912049
239   1 0.0000  4.907372 17.882666 30.288126
240   1 0.0000  4.907372 17.882666 37.664203
241   1 0.0000  8.833270  1.510357  0.783819
242   1 0.0000  8.833270  1.510357  8.159895
243   1 0.0000  8.833270  1.510357 15.535972
244   1 0.0000  8.833270  1.510357 22.912049
245   1 0.0000  8.833270  1.510357 30.288126
246   1 0.0000  8.833270  1.510357 37.664203
247   1 0.0000  8.833270  6.967793  0.783819
248   1 0.0000  8.833270  6.967793  8.159895
249   1 0.0000  8.833270  6.967793 15.535972
250   1 0.0000  8.833270  6.967793 22.912049
251   1 0.0000  8.833270  6.967793 30.288126
252   1 0.0000  8.833270  6.967793 37.664203
253   1 0.0000  8.833270 12.425230  0.783819
254   1 0.0000  8.833270 12.425230  8.159895
255   1 0.0000  8.833270 12.425230 15.535972
256   1 0.0000  8.833270 12.425230 22.912049
257   1 0.0000  8.833270 12.425230 30.288126
258   1 0.0000  8.833270 12.425230 37.664203
259   1 0.0000  8.833270 17.882666  0.783819
260   1 0.0000  8.833270 17.882666  8.159895
261   1 0.0000  8.833270 17.882666 15.535972
262   1 0.0000  8.833270 17.882666 22.912049
263   1 0.0000  8.833270 17.882666 30.288126
264   1 0.0000  8.833270 17.882666 37.664203
265   1 0.0000 12.759167  1.510357  0.783819
266   1 0.0000 12.759167  1.510357  8.159895
267   1 0.0000 12.759167  1.510357 15.535972
268   1 0.0000 12.759167  1.510357 22.912049
269   1 0.0000 12.759167  1.510357 30.288126
270   1 0.0000 12.759167  1.510357 37.664203
271   1 0.0000 12.759167  6.967793  0.783819
272   1 0.0000 12.759167  6.967793  8.159895
273   1 0.0000 12.759167  6.967793 15.535972
274   1 0.0000 12.759167  6.967793 22.912049
275   1 0.0000 12.759167  6.967793 30.288126
276   1 0.0000 12.759167  6.967793 37.664203
277   1 0.0000 12.759167 12.425230  0.783819
278   1 0.0000 12.759167 12.425230  8.159895
279   1 0.0000 12.759167 12.425230 15.535972
280   1 0.0000 12.759167 12.425230 22.912049
281   1 0.0000 12.759167 12.425230 30.288126
282   1 0.0000 12.759167 12.425230 37.664203
283   1 0.0000 12.759167 17.882666  0.783819
284   1 0.0000 12.759167 17.882666  8.159895
285   1 0.0000 12.759167 17.882666 15.535972
286   1 0.0000 12.759167 17.882666 22.912049
287   1 0.0000 12.759167 17.882666 30.288126
288   1 0.0000 12.759167 17.882666 37.664203
289   1 0.0000  2.944423  3.947079  6.592258
290   1 0.0000  2.944423  3.947079 13.968335
291   1 0.0000  2.944423  3.947079 21.344412
292   1 0.0000  2.944423  3.947079 28.720489
293   1 0.0000  2.944423  3.947079 36.096566
294   1 0.0000  2.944423  3.947079 43.472643
295   1 0.0000  2.944423  9.404515  6.592258
296   1 0.0000  2.944423  9.404515 13.968335
297   1 0.0000  2.944423  9.404515 21.344412
298   1 0.0000  2.944423  9.404515 28.720489
299   1 0.0000  2.944423  9.404515 36.096566
300   1 0.0000  2.944423  9.404515 43.472643
301   1 0.0000  2.944423 14.861951  6.592258
302   1 0.0000  2.944423 14.861951 13.968335
303   1 0.0000  2.944423 14.861951 21.344412
304   1 0.0000  2.944423 14.861951 28.720489
305   1 0.0000  2.944423 14.861951 36.096566
306   1 0.0000  2.944423 14.861951 43.472643
307   1 0.0000  2.944423 20.319388  6.592258
308   1 0.0000  2.944423 20.319388 13.968335
309   1 0.0000  2.944423 20.319388 21.344412
310   1 0.0000  2.944423 20.319388 28.720489
311   1 0.0000  2.944423 20.319388 36.096566
312   1 0.0000  2.944423 20.319388 43.472643
313   1 0.0000  6.870321  3.947079  6.592258
314   1 0.0000  6.870321  3.947079 13.968335
315   1 0.0000  6.870321  3.947079 21.344412
316   1 0.0000  6.870321  3.947079 28.720489
317   1 0.0000  6.870321  3.947079 36.096566
318   1 0.0000  6.870321  3.947079 43.472643
319   1 0.0000  6.870321  9.404515  6.592258
320   1 0.0000  6.870321  9.404515 13.968335
321   1 0.0000  6.870321  9.404515 21.344412
322   1 0.0000  6.870321  9.404515 28.720489
323   1 0.0000  6.870321  9.404515 36.096566
324   1 0.0000  6.870321  9.404515 43.472643
325   1 0.0000  6.870321 14.861951  6.592258
326   1 0.0000  6.870321 14.861951 13.968335
327   1 0.0000  6.870321 14.861951 21.344412
328   1 0.0000  6.870321 14.861951 28.720489
329   1 0.0000  6.870321 14.861951 36.096566
330   1 0.0000  6.870321 14.861951 43.472643
331   1 0.0000  6.870321 20.319388  6.592258
332   1 0.0000  6.870321 20.319388 13.968335
333   1 0.0000  6.870321 20.319388 21.344412
334   1 0.0000  6.870321 20.319388 28.720489
335   1 0.0000  6.870321 20.319388 36.096566
336   1 0.0000  6.870321 20.319388 43.472643
337   1 0.0000 10.796218  3.947079  6.592258
338   1 0.0000 10.796218  3.947079 13.968335
339   1 0.0000 10.796218  3.947079 21.344412
340   1 0.0000 10.796218  3.947079 28.720489
341   1 0.0000 10.796218  3.947079 36.096566
342   1 0.0000 10.796218  3.947079 43.472643
343   1 0.0000 10.796218  9.404515  6.592258
344   1 0.0000 10.796218  9.404515 13.968335
345   1 0.0000 10.796218  9.404515 21.344412
346   1 0.0000 10.796218  9.404515 28.720489
347   1 0.0000 10.796218  9.404515 36.096566
348   1 0.0000 10.796218  9.404515 43.472643
349   1 0.0000 10.796218 14.861951  6.592258
350   1 0.0000 10.796218 14.861951 13.968335
351   1 0.0000 10.796218 14.861951 21.344412
352   1 0.0000 10.796218 14.861951 28.720489
353   1 0.0000 10.796218 14.861951 36.096566
354   1 0.0000 10.796218 14.861951 43.472643
355   1 0.0000 10.796218 20.319388  6.592258
356   1 0.0000 10.796218 20.319388 13.968335
357   1 0.0000 10.796218 20.319388 21.344412
358   1 0.0000 10.796218 20.319388 28.720489
359   1 0.0000 10.796218 20.319388 36.096566
360   1 0.0000 10.796218 20.319388 43.472643
361   1 0.0000 14.722116  3.947079  6.592258
362   1 0.0000 14.722116  3.947079 13.968335
363   1 0.0000 14.722116  3.947079 21.344412
364   1 0.0000 14.722116  3.947079 28.720489
365   1 0.0000 14.722116  3.947079 36.096566
366   1 0.0000 14.722116  3.947079 43.472643
367   1 0.0000 14.722116  9.404515  6.592258
368   1 0.0000 14.722116  9.404515 13.968335
369   1 0.0000 14.722116  9.404515 21.344412
370   1 0.0000 14.722116  9.404515 28.720489
371   1 0.0000 14.722116  9.404515 36.096566
372   1 0.0000 14.722116  9.404515 43.472643
373   1 0.0000 14.722116 14.861951  6.592258
374   1 0.0000 14.722116 14.861951 13.968335
375   1 0.0000 14.722116 14.861951 21.344412
376   1 0.0000 14.722116 14.861951 28.720489
377   1 0.0000 14.722116 14.861951 36.096566
378   1 0.0000 14.722116 14.861951 43.472643
379   1 0.0000 14.722116 20.319388  6.592258
380   1 0.0000 14.722116 20.319388 13.968335
381   1 0.0000 14.722116 20.319388 21.344412
382   1 0.0000 14.722116 20.319388 28.720489
383   1 0.0000 14.722116 20.319388 36.096566
384   1 0.0000 14.722116 20.319388 43.472643
385   2 0.0000  2.944423  0.147159  2.239529
386   2 0.0000  2.944423  0.147159  9.615606
387   2 0.0000  2.944423  0.147159 16.991683
388   2 0.0000  2.944423  0.147159 24.367760
389   2 0.0000  2.944423  0.147159 31.743837
390   2 0.0000  2.944423  0.147159 39.119914
391   2 0.0000  2.944423  5.604596  2.239529
392   2 0.0000  2.944423  5.604596  9.615606
393   2 0.0000  2.944423  5.604596 16.991683
394   2 0.0000  2.944423  5.604596 24.367760
395   2 0.0000  2.944423  5.604596 31.743837
396   2 0.0000  2.944423  5.604596 39.119914
397   2 0.0000  2.944423 11.062032  2.239529
398   2 0.0000  2.944423 11.062032  9.615606
399   2 0.0000  2.944423 11.062032 16.991683
400   2 0.0000  2.944423 11.062032 24.367760
401   2 0.0000  2.944423 11.062032 31.743837
402   2 0.0000  2.944423 11.062032 39.119914
403   2 0.0000  2.944423 16.519468  2.239529
404   2 0.0000  2.944423 16.519468  9.615606
405   2 0.0000  2.944423 16.519468 16.991683
406   2 0.0000  2.944423 16.519468 24.367760
407   2 0.0000  2.944423 16.519468 31.743837
408   2 0.0000  2.944423 16.519468 39.119914
409   2 0.0000  6.870321  0.147159  2.239529
410   2 0.0000  6.870321  0.147159  9.615606
411   2 0.0000  6.870321  0.147159 16.991683
412   2 0.0000  6.870321  0.147159 24.367760
413   2 0.0000  6.870321  0.147159 31.743837
414   2 0.0000  6.870321  0.147159 39.119914
415   2 0.0000  6.870321  5.604596  2.239529
416   2 0.0000  6.870321  5.604596  9.615606
417   2 0.0000  6.870321  5.604596 16.991683
418   2 0.0000  6.870321  5.604596 24.367760
419   2 0.0000  6.870321  5.604596 31.743837
420   2 0.0000  6.870321  5.604596 39.119914
421   2 0.0000  6.870321 11.062032  2.239529
422   2 0.0000  6.870321 11.062032  9.615606
423   2 0.0000  6.870321 11.062032 16.991683
424   2 0.0000  6.870321 11.062032 24.367760
425   2 0.0000  6.870321 11.062032 31.743837
426   2 0.0000  6.870321 11.062032 39.119914
427   2 0.0000  6.870321 16.519468  2.239529
428   2 0.0000  6.870321 16.519468  9.615606
429   2 0.0000  6.870321 16.519468 16.991683
430   2 0.0000  6.870321 16.519468 24.367760
431   2 0.0000  6.870321 16.519468 31.743837
432   2 0.0000  6.870321 16.519468 39.119914
433   2 0.0000 10.796218  0.147159  2.239529
434   2 0.0000 10.796218  0.147159  9.615606
435   2 0.0000 10.796218  0.147159 16.991683
436   2 0.0000 10.796218  0.147159 24.367760
437   2 0.0000 10.796218  0.147159 31.743837
438   2 0.0000 10.796218  0.147159 39.119914
439   2 0.0000 10.796218  5.604596  2.239529
440   2 0.0000 10.796218  5.604596  9.615606
441   2 0.0000 10.796218  5.604596 16.991683
442   2 0.0000 10.796218  5.604596 24.367760
443   2 0.0000 10.796218  5.604596 31.743837
444   2 0.0000 10.796218  5.604596 39.119914
445   2 0.0000 10.796218 11.062032  2.239529
446   2 0.0000 10.796218 11.062032  9.615606
447   2 0.0000 10.796218 11.062032 16.991683
448   2 0.0000 10.796218 11.062032 24.367760
449   2 0.0000 10.796218 11.062032 31.743837
450   2 0.0000 10.796218 11.062032 39.119914
451   2 0.0000 10.796218 16.519468  2.239529
452   2 0.0000 10.796218 16.519468  9.615606
453   2 0.0000 10.796218 16.519468 16.991683
454   2 0.0000 10.796218 16.519468 24.367760
455   2 0.0000 10.796218 16.519468 31.743837
456   2 0.0000 10.796218 16.519468 39.119914
457   2 0.0000 14.722116  0.147159  2.239529
458   2 0.0000 14.722116  0.147159  9.615606
459   2 0.0000 14.722116  0.147159 16.991683
460   2 0.0000 14.722116  0.147159 24.367760
461   2 0.0000 14.722116  0.147159 31.743837
462   2 0.0000 14.722116  0.147159 39.119914
463   2 0.0000 14.722116  5.604596  2.239529
464   2 0.0000 14.722116  5.604596  9.615606
465   2 0.0000 14.722116  5.604596 16.991683
466   2 0.0000 14.722116  5.604596 24.367760
467   2 0.0000 14.722116  5.604596 31.743837
468   2 0.0000 14.722116  5.604596 39.119914
469   2 0.0000 14.722116 11.062032  2.239529
470   2 0.0000 14.722116 11.062032  9.615606
471   2 0.0000 14.722116 11.062032 16.991683
472   2 0.0000 14.722116 11.062032 24.367760
473   2 0.0000 14.722116 11.062032 31.743837
474   2 0.0000 14.722116 11.062032 39.119914
475   2 0.0000 14.722116 16.519468  2.239529
476   2 0.0000 14.722116 16.519468  9.615606
477   2 0.0000 14.722116 16.519468 16.991683
478   2 0.0000 14.722116 16.519468 24.367760
479   2 0.0000 14.722116 16.519468 31.743837
480   2 0.0000 14.722116 16.519468 39.119914
481   2 0.0000  0.981474  5.310277  5.136547
482   2 0.0000  0.981474  5.310277 12.512624
483   2 0.0000  0.981474  5.310277 19.888701
484   2 0.0000  0.981474  5.310277 27.264778
485   2 0.0000  0.981474  5.310277 34.640855
486   2 0.0000  0.981474  5.310277 42.016932
487   2 0.0000  0.981474 10.767713  5.136547
488   2 0.0000  0.981474 10.767713 12.512624
489   2 0.0000  0.981474 10.767713 19.888701
490   2 0.0000  0.981474 10.767713 27.264778
491   2 0.0000  0.981474 10.767713 34.640855
492   2 0.0000  0.981474 10.767713 42.016932
493   2 0.0000  0.981474 16.225149  5.136547
494   2 0.0000  0.981474 16.225149 12.512624
495   2 0.0000  0.981474 16.225149 19.888701
496   2 0.0000  0.981474 16.225149 27.264778
497   2 0.0000  0.981474 16.225149 34.640855
498   2 0.0000  0.981474 16.225149 42.016932
499   2 0.0000  0.981474 21.682585  5.136547
500   2 0.0000  0.981474 21.682585 12.512624
501   2 0.0000  0.981474 21.682585 19.888701
502   2 0.0000  0.981474 21.682585 27.264778
503   2 0.0000  0.981474 21.682585 34.640855
504   2 0.0000  0.981474 21.682585 42.016932
505   2 0.0000  4.907372  5.310277  5.136547
506   2 0.0000  4.907372  5.310277 12.512624
507   2 0.0000  4.907372  5.310277 19.888701
508   2 0.0000  4.907372  5.310277 27.264778
509   2 0.0000  4.907372  5.310277 34.640855
510   2 0.0000  4.907372  5.310277 42.016932
511   2 0.0000  4.907372 10.767713  5.136547
512   2 0.0000  4.907372 10.767713 12.512624
513   2 0.0000  4.907372 10.767713 19.888701
514   2 0.0000  4.907372 10.767713 27.264778
515   2 0.0000  4.907372 10.767713 34.640855
516   2 0.0000  4.907372 10.767713 42.016932
517   2 0.0000  4.907372 16.225149  5.136547
518   2 0.0000  4.907372 16.225149 12.512624
519   2 0.0000  4.907372 16.225149 19.888701
520   2 0.0000  4.907372 16.225149 27.264778
521   2 0.0000  4.907372 16.225149 34.640855
522   2 0.0000  4.907372 16.225149 42.016932
523   2 0.0000  4.907372 21.682585  5.136547
524   2 0.0000  4.907372 21.682585 12.512624
525   2 0.0000  4.907372 21.682585 19.888701
526   2 0.0000  4.907372 21.682585 27.264778
527   2 0.0000  4.907372 21.682585 34.640855
528   2 0.0000  4.907372 21.682585 42.016932
529   2 0.0000  8.833270  5.310277  5.136547
530   2 0.0000  8.833270  5.310277 12.512624
531   2 0.0000  8.833270  5.310277 19.888701
532   2 0.0000  8.833270  5.310277 27.264778
533   2 0.0000  8.833270  5.310277 34.640855
534   2 0.0000  8.833270  5.310277 42.016932
535   2 0.0000  8.833270 10.767713  5.136547
536   2 0.0000  8.833270 10.767713 12.512624
537   2 0.0000  8.833270 10.767713 19.888701
538   2 0.0000  8.833270 10.767713 27.264778
539   2 0.0000  8.833270 10.767713 34.640855
540   2 0.0000  8.833270 10.767713 42.016932
541   2 0.0000  8.833270 16.225149  5.136547
542   2 0.0000  8.833270 16.225149 12.512624
543   2 0.0000  8.833270 16.225149 19.888701
544   2 0.0000  8.833270 16.225149 27.264778
545   2 0.0000  8.833270 16.225149 34.640855
546   2 0.0000  8.833270 16.225149 42.016932
547   2 0.0000  8.833270 21.682585  5.136547
548   2 0.0000  8.833270 21.682585 12.512624
549   2 0.0000  8.833270 21.682585 19.888701
550   2 0.0000  8.833270 21.682585 27.264778
551   2 0.0000  8.833270 21.682585 34.640855
552   2 0.0000  8.833270 21.682585 42.016932
553   2 0.0000 12.759167  5.310277  5.136547
554   2 0.0000 12.759167  5.310277 12.512624
555   2 0.0000 12.759167  5.310277 19.888701
556   2 0.0000 12.759167  5.310277 27.264778
557   2 0.0000 12.759167  5.310277 34.640855
558   2 0.0000 12.759167  5.310277 42.016932
559   2 0.0000 12.759167 10.767713  5.136547
560   2 0.0000 12.759167 10.767713 12.512624
561   2 0.0000 12.759167 10.767713 19.888701
562   2 0.0000 12.759167 10.767713 27.264778
563   2 0.0000 12.759167 10.767713 34.640855
564   2 0.0000 12.759167 10.767713 42.016932
565   2 0.0000 12.759167 16.225149  5.136547
566   2 0.0000 12.759167 16.225149 12.512624
567   2 0.0000 12.759167 16.225149 19.888701
568   2 0.0000 12.759167 16.225149 27.264778
569   2 0.0000 12.759167 16.225149 34.640855
570   2 0.0000 12.759167 16.225149 42.016932
571   2 0.0000 12.759167 21.682585  5.136547
572   2 0.0000 12.759167 21.682585 12.512624
573   2 0.0000 12.759167 21.682585 19.888701
574   2 0.0000 12.759167 21.682585 27.264778
575   2 0.0000 12.759167 21.682585 34.640855
576   2 0.0000 12.759167 21.682585 42.016932
577   2 0.0000  2.944423  2.875878  1.448509
578   2 0.0000  2.944423  2.875878  8.824586
579   2 0.0000  2.944423  2.875878 16.200663
580   2 0.0000  2.944423  2.875878 23.576740
581   2 0.0000  2.944423  2.875878 30.952816
582   2 0.0000  2.944423  2.875878 38.328893
583   2 0.0000  2.944423  8.333314  1.448509
584   2 0.0000  2.944423  8.333314  8.824586
585   2 0.0000  2.944423  8.333314 16.200663
586   2 0.0000  2.944423  8.333314 23.576740
587   2 0.0000  2.944423  8.333314 30.952816
588   2 0.0000  2.944423  8.333314 38.328893
589   2 0.0000  2.944423 13.790750  1.448509
590   2 0.0000  2.944423 13.790750  8.824586
591   2 0.0000  2.944423 13.790750 16.200663
592   2 0.0000  2.944423 13.790750 23.576740
593   2 0.0000  2.944423 13.790750 30.952816
594   2 0.0000  2.944423 13.790750 38.328893
595   2 0.0000  2.944423 19.248186  1.448509
596   2 0.0000  2.944423 19.248186  8.824586
597   2 0.0000  2.944423 19.248186 16.200663
598   2 0.0000  2.944423 19.248186 23.576740
599   2 0.0000  2.944423 19.248186 30.952816
600   2 0.0000  2.944423 19.248186 38.328893
601   2 0.0000  6.870321  2.875878  1.448509
602   2 0.0000  6.870321  2.875878  8.824586
603   2 0.0000  6.870321  2.875878 16.200663
604   2 0.0000  6.870321  2.875878 23.576740
605   2 0.0000  6.870321  2.875878 30.952816
606   2 0.0000  6.870321  2.875878 38.328893
607   2 0.0000  6.870321  8.333314  1.448509
608   2 0.0000  6.870321  8.333314  8.824586
609   2 0.0000  6.870321  8.333314 16.200663
610   2 0.0000  6.870321  8.333314 23.576740
611   2 0.0000  6.870321  8.333314 30.952816
612   2 0.0000  6.870321  8.333314 38.328893
613   2 0.0000  6.870321 13.790750  1.448509
614   2 0.0000  6.870321 13.790750  8.824586
615   2 0.0000  6.870321 13.790750 16.200663
616   2 0.0000  6.870321 13.790750 23.576740
617   2 0.0000  6.870321 13.790750 30.952816
618   2 0.0000  6.870321 13.790750 38.328893
619   2 0.0000  6.870321 19.248186  1.448509
620   2 0.0000  6.870321 19.248186  8.824586
621   2 0.0000  6.870321 19.248186 16.200663
622   2 0.0000  6.870321 19.248186 23.576740
623   2 0.0000  6.870321 19.248186 30.952816
624   2 0.0000  6.870321 19.248186 38.328893
625   2 0.0000 10.796218  2.875878  1.448509
626   2 0.0000 10.796218  2.875878  8.824586
627   2 0.0000 10.796218  2.875878 16.200663
628   2 0.0000 10.796218  2.875878 23.576740
629   2 0.0000 10.796218  2.875878 30.952816
630   2 0.0000 10.796218  2.875878 38.328893
631   2 0.0000 10.796218  8.333314  1.448509
632   2 0.0000 10.796218  8.333314  8.824586
633   2 0.0000 10.796218  8.333314 16.200663
634   2 0.0000 10.796218  8.333314 23.576740
635   2 0.0000 10.796218  8.333314 30.952816
636   2 0.0000 10.796218  8.333314 38.328893
637   2 0.0000 10.796218 13.790750  1.448509
638   2 0.0000 10.796218 13.790750  8.824586
639   2 0.0000 10.796218 13.790750 16.200663
640   2 0.0000 10.796218 13.790750 23.576740
641   2 0.0000 10.796218 13.790750 30.952816
642   2 0.0000 10.796218 13.790750 38.328893
643   2 0.0000 10.796218 19.248186  1.448509
644   2 0.0000 10.796218 19.248186  8.824586
645   2 0.0000 10.796218 19.248186 16.200663
646   2 0.0000 10.796218 19.248186 23.576740
647   2 0.0000 10.796218 19.248186 30.952816
648   2 0.0000 10.796218 19.248186 38.328893
649   2 0.0000 14.722116  2.875878  1.448509
650   2 0.0000 14.722116  2.875878  8.824586
651   2 0.0000 14.722116  2.875878 16.200663
652   2 0.0000 14.722116  2.875878 23.576740
653   2 0.0000 14.722116  2.875878 30.952816
654   2 0.0000 14.722116  2.875878 38.328893
655   2 0.0000 14.722116  8.333314  1.448509
656   2 0.0000 14.722116  8.333314  8.824586
657   2 0.0000 14.722116  8.333314 16.200663
658   2 0.0000 14.722116  8.333314 23.576740
659   2 0.0000 14.722116  8.333314 30.952816
660   2 0.0000 14.722116  8.333314 38.328893
661   2 0.0000 14.722116 13.790750  1.448509
662   2 0.0000 14.722116 13.790750  8.824586