Generated by pymatgen.io.lammps.data.LammpsData

192  atoms

  2  atom types

0.000000 7.851795  xlo xhi
0.000000 10.914872  ylo yhi
0.000000 29.504307  zlo zhi

Masses

1   28.0855
2  102.9055

Atoms

1    1 0.0000 0.981474  4.239075  2.904220
2    1 0.0000 0.981474  4.239075 10.280297
3    1 0.0000 0.981474  4.239075 17.656374
4    1 0.0000 0.981474  4.239075 25.032450
5    1 0.0000 0.981474  9.696512  2.904220
6    1 0.0000 0.981474  9.696512 10.280297
7    1 0.0000 0.981474  9.696512 17.656374
8    1 0.0000 0.981474  9.696512 25.032450
9    1 0.0000 4.907372  4.239075  2.904220
10   1 0.0000 4.907372  4.239075 10.280297
11   1 0.0000 4.907372  4.239075 17.656374
12   1 0.0000 4.907372  4.239075 25.032450
13   1 0.0000 4.907372  9.696512  2.904220
14   1 0.0000 4.907372  9.696512 10.280297
15   1 0.0000 4.907372  9.696512 17.656374
16   1 0.0000 4.907372  9.696512 25.032450
17   1 0.0000 2.944423  1.218361  4.471857
18   1 0.0000 2.944423  1.218361 11.847934
19   1 0.0000 2.944423  1.218361 19.224011
20   1 0.0000 2.944423  1.218361 26.600087
21   1 0.0000 2.944423  6.675797  4.471857
22   1 0.0000 2.944423  6.675797 11.847934
23   1 0.0000 2.944423  6.675797 19.224011
24   1 0.0000 2.944423  6.675797 26.600087
25   1 0.0000 6.870321  1.218361  4.471857
26   1 0.0000 6.870321  1.218361 11.847934
27   1 0.0000 6.870321  1.218361 19.224011
28   1 0.0000 6.870321  1.218361 26.600087
29   1 0.0000 6.870321  6.675797  4.471857
30   1 0.0000 6.870321  6.675797 11.847934
31   1 0.0000 6.870321  6.675797 19.224011
32   1 0.0000 6.870321  6.675797 26.600087
33   1 0.0000 0.981474  1.510357  0.783819
34   1 0.0000 0.981474  1.510357  8.159895
35   1 0.0000 0.981474  1.510357 15.535972
36   1 0.0000 0.981474  1.510357 22.912049
37   1 0.0000 0.981474  6.967793  0.783819
38   1 0.0000 0.981474  6.967793  8.159895
39   1 0.0000 0.981474  6.967793 15.535972
40   1 0.0000 0.981474  6.967793 22.912049
41   1 0.0000 4.907372  1.510357  0.783819
42   1 0.0000 4.907372  1.510357  8.159895
43   1 0.0000 4.907372  1.510357 15.535972
44   1 0.0000 4.907372  1.510357 22.912049
45   1 0.0000 4.907372  6.967793  0.783819
46   1 0.0000 4.907372  6.967793  8.159895
47   1 0.0000 4.907372  6.967793 15.535972
48   1 0.0000 4.907372  6.967793 22.912049
49   1 0.0000 2.944423  3.947079  6.592258
50   1 0.0000 2.944423  3.947079 13.968335
51   1 0.0000 2.944423  3.947079 21.344412
52   1 0.0000 2.944423  3.947079 28.720489
53   1 0.0000 2.944423  9.404515  6.592258
54   1 0.0000 2.944423  9.404515 13.968335
55   1 0.0000 2.944423  9.404515 21.344412
56   1 0.0000 2.944423  9.404515 28.720489
57   1 0.0000 6.870321  3.947079  6.592258
58   1 0.0000 6.870321  3.947079 13.968335
59   1 0.0000 6.870321  3.947079 21.344412
60   1 0.0000 6.870321  3.947079 28.720489
61   1 0.0000 6.870321  9.404515  6.592258
62   1 0.0000 6.870321  9.404515 13.968335
63   1 0.0000 6.870321  9.404515 21.344412
64   1 0.0000 6.870321  9.404515 28.720489
65   2 0.0000 2.944423  0.147159  2.239529
66   2 0.0000 2.944423  0.147159  9.615606
67   2 0.0000 2.944423  0.147159 16.991683
68   2 0.0000 2.944423  0.147159 24.367760
69   2 0.0000 2.944423  5.604596  2.239529
70   2 0.0000 2.944423  5.604596  9.615606
71   2 0.0000 2.944423  5.604596 16.991683
72   2 0.0000 2.944423  5.604596 24.367760
73   2 0.0000 6.870321  0.147159  2.239529
74   2 0.0000 6.870321  0.147159  9.615606
75   2 0.0000 6.870321  0.147159 16.991683
76   2 0.0000 6.870321  0.147159 24.367760
77   2 0.0000 6.870321  5.604596  2.239529
78   2 0.0000 6.870321  5.604596  9.615606
79   2 0.0000 6.870321  5.604596 16.991683
80   2 0.0000 6.870321  5.604596 24.367760
81   2 0.0000 0.981474  5.310277  5.136547
82   2 0.0000 0.981474  5.310277 12.512624
83   2 0.0000 0.981474  5.310277 19.888701
84   2 0.0000 0.981474  5.310277 27.264778
85   2 0.0000 0.981474 10.767713  5.136547
86   2 0.0000 0.981474 10.767713 12.512624
87   2 0.0000 0.981474 10.767713 19.888701
88   2 0.0000 0.981474 10.767713 27.264778
89   2 0.0000 4.907372  5.310277  5.136547
90   2 0.0000 4.907372  5.310277 12.512624
91   2 0.0000 4.907372  5.310277 19.888701
92   2 0.0000 4.907372  5.310277 27.264778
93   2 0.0000 4.907372 10.767713  5.136547
94   2 0.0000 4.907372 10.767713 12.512624
95   2 0.0000 4.907372 10.767713 19.888701
96   2 0.0000 4.907372 10.767713 27.264778
97   2 0.0000 2.944423  2.875878  1.448509
98   2 0.0000 2.944423  2.875878  8.824586
99   2 0.0000 2.944423  2.875878 16.200663
100  2 0.0000 2.944423  2.875878 23.576740
101  2 0.0000 2.944423  8.333314  1.448509
102  2 0.0000 2.944423  8.333314  8.824586
103  2 0.0000 2.944423  8.333314 16.200663
104  2 0.0000 2.944423  8.333314 23.576740
105  2 0.0000 6.870321  2.875878  1.448509
106  2 0.0000 6.870321  2.875878  8.824586
107  2 0.0000 6.870321  2.875878 16.200663
108  2 0.0000 6.870321  2.875878 23.576740
109  2 0.0000 6.870321  8.333314  1.448509
110  2 0.0000 6.870321  8.333314  8.824586
111  2 0.0000 6.870321  8.333314 16.200663
112  2 0.0000 6.870321  8.333314 23.576740
113  2 0.0000 0.981474  2.581559  5.927568
114  2 0.0000 0.981474  2.581559 13.303645
115  2 0.0000 0.981474  2.581559 20.679722
116  2 0.0000 0.981474  2.581559 28.055798
117  2 0.0000 0.981474  8.038995  5.927568
118  2 0.0000 0.981474  8.038995 13.303645
119  2 0.0000 0.981474  8.038995 20.679722
120  2 0.0000 0.981474  8.038995 28.055798
121  2 0.0000 4.907372  2.581559  5.927568
122  2 0.0000 4.907372  2.581559 13.303645
123  2 0.0000 4.907372  2.581559 20.679722
124  2 0.0000 4.907372  2.581559 28.055798
125  2 0.0000 4.907372  8.038995  5.927568
126  2 0.0000 4.907372  8.038995 13.303645
127  2 0.0000 4.907372  8.038995 20.679722
128  2 0.0000 4.907372  8.038995 28.055798
129  2 0.0000 0.981474  1.860729  3.172288
130  2 0.0000 0.981474  1.860729 10.548365
131  2 0.0000 0.981474  1.860729 17.924442
132  2 0.0000 0.981474  1.860729 25.300519
133  2 0.0000 0.981474  7.318165  3.172288
134  2 0.0000 0.981474  7.318165 10.548365
135  2 0.0000 0.981474  7.318165 17.924442
136  2 0.0000 0.981474  7.318165 25.300519
137  2 0.0000 4.907372  1.860729  3.172288
138  2 0.0000 4.907372  1.860729 10.548365
139  2 0.0000 4.907372  1.860729 17.924442
140  2 0.0000 4.907372  1.860729 25.300519
141  2 0.0000 4.907372  7.318165  3.172288
142  2 0.0000 4.907372  7.318165 10.548365
143  2 0.0000 4.907372  7.318165 17.924442
144  2 0.0000 4.907372  7.318165 25.300519
145  2 0.0000 2.944423  3.596707  4.203789
146  2 0.0000 2.944423  3.596707 11.579866
147  2 0.0000 2.944423  3.596707 18.955942
148  2 0.0000 2.944423  3.596707 26.332019
149  2 0.0000 2.944423  9.054143  4.203789
150  2 0.0000 2.944423  9.054143 11.579866
151  2 0.0000 2.944423  9.054143 18.955942
152  2 0.0000 2.944423  9.054143 26.332019
153  2 0.0000 6.870321  3.596707  4.203789
154  2 0.0000 6.870321  3.596707 11.579866
155  2 0.0000 6.870321  3.596707 18.955942
156  2 0.0000 6.870321  3.596707 26.332019
157  2 0.0000 6.870321  9.054143  4.203789
158  2 0.0000 6.870321  9.054143 11.579866
159  2 0.0000 6.870321  9.054143 18.955942
160  2 0.0000 6.870321  9.054143 26.332019
161  2 0.0000 0.981474  4.589447  0.515750
162  2 0.0000 0.981474  4.589447  7.891827
163  2 0.0000 0.981474  4.589447 15.267904
164  2 0.0000 0.981474  4.589447 22.643981
165  2 0.0000 0.981474 10.046883  0.515750
166  2 0.0000 0.981474 10.046883  7.891827
167  2 0.0000 0.981474 10.046883 15.267904
168  2 0.0000 0.981474 10.046883 22.643981
169  2 0.0000 4.907372  4.589447  0.515750
170  2 0.0000 4.907372  4.589447  7.891827
171  2 0.0000 4.907372  4.589447 15.267904
172  2 0.0000 4.907372  4.589447 22.643981
173  2 0.0000 4.907372 10.046883  0.515750
174  2 0.0000 4.907372 10.046883  7.891827
175  2 0.0000 4.907372 10.046883 15.267904
176  2 0.0000 4.907372 10.046883 22.643981
177  2 0.0000 2.944423  0.867989  6.860327
178  2 0.0000 2.944423  0.867989 14.236403
179  2 0.0000 2.944423  0.867989 21.612480
180  2 0.0000 2.944423  0.867989 28.988557
181  2 0.0000 2.944423  6.325425  6.860327
182  2 0.0000 2.944423  6.325425 14.236403
183  2 0.0000 2.944423  6.325425 21.612480
184  2 0.0000 2.944423  6.325425 28.988557
185  2 0.0000 6.870321  0.867989  6.860327
186  2 0.0000 6.870321  0.867989 14.236403
187  2 0.0000 6.870321  0.867989 21.612480
188  2 0.0000 6.870321  0.867989 28.988557
189  2 0.0000 6.870321  6.325425  6.860327
190  2 0.0000 6.870321  6.325425 14.236403
191  2 0.0000 6.870321  6.325425 21.612480
192  2 0.0000 6.870321  6.325425 28.988557

