Generated by pymatgen.io.lammps.data.LammpsData

480  atoms

  3  atom types

0.000000 15.518208  xlo xhi
0.000000 15.518208  ylo yhi
0.000000 25.715326  zlo zhi

Masses

1   47.8670
2  207.2000
3   15.9994

Atoms

1    1 0.0000  1.939776  1.939776  2.496591
2    1 0.0000  1.939776  1.939776  6.782479
3    1 0.0000  1.939776  1.939776 11.068367
4    1 0.0000  1.939776  1.939776 15.354254
5    1 0.0000  1.939776  1.939776 19.640142
6    1 0.0000  1.939776  1.939776 23.926030
7    1 0.0000  1.939776  5.819328  2.496591
8    1 0.0000  1.939776  5.819328  6.782479
9    1 0.0000  1.939776  5.819328 11.068367
10   1 0.0000  1.939776  5.819328 15.354254
11   1 0.0000  1.939776  5.819328 19.640142
12   1 0.0000  1.939776  5.819328 23.926030
13   1 0.0000  1.939776  9.698880  2.496591
14   1 0.0000  1.939776  9.698880  6.782479
15   1 0.0000  1.939776  9.698880 11.068367
16   1 0.0000  1.939776  9.698880 15.354254
17   1 0.0000  1.939776  9.698880 19.640142
18   1 0.0000  1.939776  9.698880 23.926030
19   1 0.0000  1.939776 13.578432  2.496591
20   1 0.0000  1.939776 13.578432  6.782479
21   1 0.0000  1.939776 13.578432 11.068367
22   1 0.0000  1.939776 13.578432 15.354254
23   1 0.0000  1.939776 13.578432 19.640142
24   1 0.0000  1.939776 13.578432 23.926030
25   1 0.0000  5.819328  1.939776  2.496591
26   1 0.0000  5.819328  1.939776  6.782479
27   1 0.0000  5.819328  1.939776 11.068367
28   1 0.0000  5.819328  1.939776 15.354254
29   1 0.0000  5.819328  1.939776 19.640142
30   1 0.0000  5.819328  1.939776 23.926030
31   1 0.0000  5.819328  5.819328  2.496591
32   1 0.0000  5.819328  5.819328  6.782479
33   1 0.0000  5.819328  5.819328 11.068367
34   1 0.0000  5.819328  5.819328 15.354254
35   1 0.0000  5.819328  5.819328 19.640142
36   1 0.0000  5.819328  5.819328 23.926030
37   1 0.0000  5.819328  9.698880  2.496591
38   1 0.0000  5.819328  9.698880  6.782479
39   1 0.0000  5.819328  9.698880 11.068367
40   1 0.0000  5.819328  9.698880 15.354254
41   1 0.0000  5.819328  9.698880 19.640142
42   1 0.0000  5.819328  9.698880 23.926030
43   1 0.0000  5.819328 13.578432  2.496591
44   1 0.0000  5.819328 13.578432  6.782479
45   1 0.0000  5.819328 13.578432 11.068367
46   1 0.0000  5.819328 13.578432 15.354254
47   1 0.0000  5.819328 13.578432 19.640142
48   1 0.0000  5.819328 13.578432 23.926030
49   1 0.0000  9.698880  1.939776  2.496591
50   1 0.0000  9.698880  1.939776  6.782479
51   1 0.0000  9.698880  1.939776 11.068367
52   1 0.0000  9.698880  1.939776 15.354254
53   1 0.0000  9.698880  1.939776 19.640142
54   1 0.0000  9.698880  1.939776 23.926030
55   1 0.0000  9.698880  5.819328  2.496591
56   1 0.0000  9.698880  5.819328  6.782479
57   1 0.0000  9.698880  5.819328 11.068367
58   1 0.0000  9.698880  5.819328 15.354254
59   1 0.0000  9.698880  5.819328 19.640142
60   1 0.0000  9.698880  5.819328 23.926030
61   1 0.0000  9.698880  9.698880  2.496591
62   1 0.0000  9.698880  9.698880  6.782479
63   1 0.0000  9.698880  9.698880 11.068367
64   1 0.0000  9.698880  9.698880 15.354254
65   1 0.0000  9.698880  9.698880 19.640142
66   1 0.0000  9.698880  9.698880 23.926030
67   1 0.0000  9.698880 13.578432  2.496591
68   1 0.0000  9.698880 13.578432  6.782479
69   1 0.0000  9.698880 13.578432 11.068367
70   1 0.0000  9.698880 13.578432 15.354254
71   1 0.0000  9.698880 13.578432 19.640142
72   1 0.0000  9.698880 13.578432 23.926030
73   1 0.0000 13.578432  1.939776  2.496591
74   1 0.0000 13.578432  1.939776  6.782479
75   1 0.0000 13.578432  1.939776 11.068367
76   1 0.0000 13.578432  1.939776 15.354254
77   1 0.0000 13.578432  1.939776 19.640142
78   1 0.0000 13.578432  1.939776 23.926030
79   1 0.0000 13.578432  5.819328  2.496591
80   1 0.0000 13.578432  5.819328  6.782479
81   1 0.0000 13.578432  5.819328 11.068367
82   1 0.0000 13.578432  5.819328 15.354254
83   1 0.0000 13.578432  5.819328 19.640142
84   1 0.0000 13.578432  5.819328 23.926030
85   1 0.0000 13.578432  9.698880  2.496591
86   1 0.0000 13.578432  9.698880  6.782479
87   1 0.0000 13.578432  9.698880 11.068367
88   1 0.0000 13.578432  9.698880 15.354254
89   1 0.0000 13.578432  9.698880 19.640142
90   1 0.0000 13.578432  9.698880 23.926030
91   1 0.0000 13.578432 13.578432  2.496591
92   1 0.0000 13.578432 13.578432  6.782479
93   1 0.0000 13.578432 13.578432 11.068367
94   1 0.0000 13.578432 13.578432 15.354254
95   1 0.0000 13.578432 13.578432 19.640142
96   1 0.0000 13.578432 13.578432 23.926030
97   2 0.0000  0.000000  0.000000  0.529684
98   2 0.0000  0.000000  0.000000  4.815572
99   2 0.0000  0.000000  0.000000  9.101459
100  2 0.0000  0.000000  0.000000 13.387347
101  2 0.0000  0.000000  0.000000 17.673235
102  2 0.0000  0.000000  0.000000 21.959122
103  2 0.0000  0.000000  3.879552  0.529684
104  2 0.0000  0.000000  3.879552  4.815572
105  2 0.0000  0.000000  3.879552  9.101459
106  2 0.0000  0.000000  3.879552 13.387347
107  2 0.0000  0.000000  3.879552 17.673235
108  2 0.0000  0.000000  3.879552 21.959122
109  2 0.0000  0.000000  7.759104  0.529684
110  2 0.0000  0.000000  7.759104  4.815572
111  2 0.0000  0.000000  7.759104  9.101459
112  2 0.0000  0.000000  7.759104 13.387347
113  2 0.0000  0.000000  7.759104 17.673235
114  2 0.0000  0.000000  7.759104 21.959122
115  2 0.0000  0.000000 11.638656  0.529684
116  2 0.0000  0.000000 11.638656  4.815572
117  2 0.0000  0.000000 11.638656  9.101459
118  2 0.0000  0.000000 11.638656 13.387347
119  2 0.0000  0.000000 11.638656 17.673235
120  2 0.0000  0.000000 11.638656 21.959122
121  2 0.0000  3.879552  0.000000  0.529684
122  2 0.0000  3.879552  0.000000  4.815572
123  2 0.0000  3.879552  0.000000  9.101459
124  2 0.0000  3.879552  0.000000 13.387347
125  2 0.0000  3.879552  0.000000 17.673235
126  2 0.0000  3.879552  0.000000 21.959122
127  2 0.0000  3.879552  3.879552  0.529684
128  2 0.0000  3.879552  3.879552  4.815572
129  2 0.0000  3.879552  3.879552  9.101459
130  2 0.0000  3.879552  3.879552 13.387347
131  2 0.0000  3.879552  3.879552 17.673235
132  2 0.0000  3.879552  3.879552 21.959122
133  2 0.0000  3.879552  7.759104  0.529684
134  2 0.0000  3.879552  7.759104  4.815572
135  2 0.0000  3.879552  7.759104  9.101459
136  2 0.0000  3.879552  7.759104 13.387347
137  2 0.0000  3.879552  7.759104 17.673235
138  2 0.0000  3.879552  7.759104 21.959122
139  2 0.0000  3.879552 11.638656  0.529684
140  2 0.0000  3.879552 11.638656  4.815572
141  2 0.0000  3.879552 11.638656  9.101459
142  2 0.0000  3.879552 11.638656 13.387347
143  2 0.0000  3.879552 11.638656 17.673235
144  2 0.0000  3.879552 11.638656 21.959122
145  2 0.0000  7.759104  0.000000  0.529684
146  2 0.0000  7.759104  0.000000  4.815572
147  2 0.0000  7.759104  0.000000  9.101459
148  2 0.0000  7.759104  0.000000 13.387347
149  2 0.0000  7.759104  0.000000 17.673235
150  2 0.0000  7.759104  0.000000 21.959122
151  2 0.0000  7.759104  3.879552  0.529684
152  2 0.0000  7.759104  3.879552  4.815572
153  2 0.0000  7.759104  3.879552  9.101459
154  2 0.0000  7.759104  3.879552 13.387347
155  2 0.0000  7.759104  3.879552 17.673235
156  2 0.0000  7.759104  3.879552 21.959122
157  2 0.0000  7.759104  7.759104  0.529684
158  2 0.0000  7.759104  7.759104  4.815572
159  2 0.0000  7.759104  7.759104  9.101459
160  2 0.0000  7.759104  7.759104 13.387347
161  2 0.0000  7.759104  7.759104 17.673235
162  2 0.0000  7.759104  7.759104 21.959122
163  2 0.0000  7.759104 11.638656  0.529684
164  2 0.0000  7.759104 11.638656  4.815572
165  2 0.0000  7.759104 11.638656  9.101459
166  2 0.0000  7.759104 11.638656 13.387347
167  2 0.0000  7.759104 11.638656 17.673235
168  2 0.0000  7.759104 11.638656 21.959122
169  2 0.0000 11.638656  0.000000  0.529684
170  2 0.0000 11.638656  0.000000  4.815572
171  2 0.0000 11.638656  0.000000  9.101459
172  2 0.0000 11.638656  0.000000 13.387347
173  2 0.0000 11.638656  0.000000 17.673235
174  2 0.0000 11.638656  0.000000 21.959122
175  2 0.0000 11.638656  3.879552  0.529684
176  2 0.0000 11.638656  3.879552  4.815572
177  2 0.0000 11.638656  3.879552  9.101459
178  2 0.0000 11.638656  3.879552 13.387347
179  2 0.0000 11.638656  3.879552 17.673235
180  2 0.0000 11.638656  3.879552 21.959122
181  2 0.0000 11.638656  7.759104  0.529684
182  2 0.0000 11.638656  7.759104  4.815572
183  2 0.0000 11.638656  7.759104  9.101459
184  2 0.0000 11.638656  7.759104 13.387347
185  2 0.0000 11.638656  7.759104 17.673235
186  2 0.0000 11.638656  7.759104 21.959122
187  2 0.0000 11.638656 11.638656  0.529684
188  2 0.0000 11.638656 11.638656  4.815572
189  2 0.0000 11.638656 11.638656  9.101459
190  2 0.0000 11.638656 11.638656 13.387347
191  2 0.0000 11.638656 11.638656 17.673235
192  2 0.0000 11.638656 11.638656 21.959122
193  3 0.0000  0.000000  1.939776  2.117904
194  3 0.0000  0.000000  1.939776  6.403792
195  3 0.0000  0.000000  1.939776 10.689679
196  3 0.0000  0.000000  1.939776 14.975567
197  3 0.0000  0.000000  1.939776 19.261455
198  3 0.0000  0.000000  1.939776 23.547342
199  3 0.0000  0.000000  5.819328  2.117904
200  3 0.0000  0.000000  5.819328  6.403792
201  3 0.0000  0.000000  5.819328 10.689679
202  3 0.0000  0.000000  5.819328 14.975567
203  3 0.0000  0.000000  5.819328 19.261455
204  3 0.0000  0.000000  5.819328 23.547342
205  3 0.0000  0.000000  9.698880  2.117904
206  3 0.0000  0.000000  9.698880  6.403792
207  3 0.0000  0.000000  9.698880 10.689679
208  3 0.0000  0.000000  9.698880 14.975567
209  3 0.0000  0.000000  9.698880 19.261455
210  3 0.0000  0.000000  9.698880 23.547342
211  3 0.0000  0.000000 13.578432  2.117904
212  3 0.0000  0.000000 13.578432  6.403792
213  3 0.0000  0.000000 13.578432 10.689679
214  3 0.0000  0.000000 13.578432 14.975567
215  3 0.0000  0.000000 13.578432 19.261455
216  3 0.0000  0.000000 13.578432 23.547342
217  3 0.0000  3.879552  1.939776  2.117904
218  3 0.0000  3.879552  1.939776  6.403792
219  3 0.0000  3.879552  1.939776 10.689679
220  3 0.0000  3.879552  1.939776 14.975567
221  3 0.0000  3.879552  1.939776 19.261455
222  3 0.0000  3.879552  1.939776 23.547342
223  3 0.0000  3.879552  5.819328  2.117904
224  3 0.0000  3.879552  5.819328  6.403792
225  3 0.0000  3.879552  5.819328 10.689679
226  3 0.0000  3.879552  5.819328 14.975567
227  3 0.0000  3.879552  5.819328 19.261455
228  3 0.0000  3.879552  5.819328 23.547342
229  3 0.0000  3.879552  9.698880  2.117904
230  3 0.0000  3.879552  9.698880  6.403792
231  3 0.0000  3.879552  9.698880 10.689679
232  3 0.0000  3.879552  9.698880 14.975567
233  3 0.0000  3.879552  9.698880 19.261455
234  3 0.0000  3.879552  9.698880 23.547342
235  3 0.0000  3.879552 13.578432  2.117904
236  3 0.0000  3.879552 13.578432  6.403792
237  3 0.0000  3.879552 13.578432 10.689679
238  3 0.0000  3.879552 13.578432 14.975567
239  3 0.0000  3.879552 13.578432 19.261455
240  3 0.0000  3.879552 13.578432 23.547342
241  3 0.0000  7.759104  1.939776  2.117904
242  3 0.0000  7.759104  1.939776  6.403792
243  3 0.0000  7.759104  1.939776 10.689679
244  3 0.0000  7.759104  1.939776 14.975567
245  3 0.0000  7.759104  1.939776 19.261455
246  3 0.0000  7.759104  1.939776 23.547342
247  3 0.0000  7.759104  5.819328  2.117904
248  3 0.0000  7.759104  5.819328  6.403792
249  3 0.0000  7.759104  5.819328 10.689679
250  3 0.0000  7.759104  5.819328 14.975567
251  3 0.0000  7.759104  5.819328 19.261455
252  3 0.0000  7.759104  5.819328 23.547342
253  3 0.0000  7.759104  9.698880  2.117904
254  3 0.0000  7.759104  9.698880  6.403792
255  3 0.0000  7.759104  9.698880 10.689679
256  3 0.0000  7.759104  9.698880 14.975567
257  3 0.0000  7.759104  9.698880 19.261455
258  3 0.0000  7.759104  9.698880 23.547342
259  3 0.0000  7.759104 13.578432  2.117904
260  3 0.0000  7.759104 13.578432  6.403792
261  3 0.0000  7.759104 13.578432 10.689679
262  3 0.0000  7.759104 13.578432 14.975567
263  3 0.0000  7.759104 13.578432 19.261455
264  3 0.0000  7.759104 13.578432 23.547342
265  3 0.0000 11.638656  1.939776  2.117904
266  3 0.0000 11.638656  1.939776  6.403792
267  3 0.0000 11.638656  1.939776 10.689679
268  3 0.0000 11.638656  1.939776 14.975567
269  3 0.0000 11.638656  1.939776 19.261455
270  3 0.0000 11.638656  1.939776 23.547342
271  3 0.0000 11.638656  5.819328  2.117904
272  3 0.0000 11.638656  5.819328  6.403792
273  3 0.0000 11.638656  5.819328 10.689679
274  3 0.0000 11.638656  5.819328 14.975567
275  3 0.0000 11.638656  5.819328 19.261455
276  3 0.0000 11.638656  5.819328 23.547342
277  3 0.0000 11.638656  9.698880  2.117904
278  3 0.0000 11.638656  9.698880  6.403792
279  3 0.0000 11.638656  9.698880 10.689679
280  3 0.0000 11.638656  9.698880 14.975567
281  3 0.0000 11.638656  9.698880 19.261455
282  3 0.0000 11.638656  9.698880 23.547342
283  3 0.0000 11.638656 13.578432  2.117904
284  3 0.0000 11.638656 13.578432  6.403792
285  3 0.0000 11.638656 13.578432 10.689679
286  3 0.0000 11.638656 13.578432 14.975567
287  3 0.0000 11.638656 13.578432 19.261455
288  3 0.0000 11.638656 13.578432 23.547342
289  3 0.0000  1.939776  0.000000  2.117904
290  3 0.0000  1.939776  0.000000  6.403792
291  3 0.0000  1.939776  0.000000 10.689679
292  3 0.0000  1.939776  0.000000 14.975567
293  3 0.0000  1.939776  0.000000 19.261455
294  3 0.0000  1.939776  0.000000 23.547342
295  3 0.0000  1.939776  3.879552  2.117904
296  3 0.0000  1.939776  3.879552  6.403792
297  3 0.0000  1.939776  3.879552 10.689679
298  3 0.0000  1.939776  3.879552 14.975567
299  3 0.0000  1.939776  3.879552 19.261455
300  3 0.0000  1.939776  3.879552 23.547342
301  3 0.0000  1.939776  7.759104  2.117904
302  3 0.0000  1.939776  7.759104  6.403792
303  3 0.0000  1.939776  7.759104 10.689679
304  3 0.0000  1.939776  7.759104 14.975567
305  3 0.0000  1.939776  7.759104 19.261455
306  3 0.0000  1.939776  7.759104 23.547342
307  3 0.0000  1.939776 11.638656  2.117904
308  3 0.0000  1.939776 11.638656  6.403792
309  3 0.0000  1.939776 11.638656 10.689679
310  3 0.0000  1.939776 11.638656 14.975567
311  3 0.0000  1.939776 11.638656 19.261455
312  3 0.0000  1.939776 11.638656 23.547342
313  3 0.0000  5.819328  0.000000  2.117904
314  3 0.0000  5.819328  0.000000  6.403792
315  3 0.0000  5.819328  0.000000 10.689679
316  3 0.0000  5.819328  0.000000 14.975567
317  3 0.0000  5.819328  0.000000 19.261455
318  3 0.0000  5.819328  0.000000 23.547342
319  3 0.0000  5.819328  3.879552  2.117904
320  3 0.0000  5.819328  3.879552  6.403792
321  3 0.0000  5.819328  3.879552 10.689679
322  3 0.0000  5.819328  3.879552 14.975567
323  3 0.0000  5.819328  3.879552 19.261455
324  3 0.0000  5.819328  3.879552 23.547342
325  3 0.0000  5.819328  7.759104  2.117904
326  3 0.0000  5.819328  7.759104  6.403792
327  3 0.0000  5.819328  7.759104 10.689679
328  3 0.0000  5.819328  7.759104 14.975567
329  3 0.0000  5.819328  7.759104 19.261455
330  3 0.0000  5.819328  7.759104 23.547342
331  3 0.0000  5.819328 11.638656  2.117904
332  3 0.0000  5.819328 11.638656  6.403792
333  3 0.0000  5.819328 11.638656 10.689679
334  3 0.0000  5.819328 11.638656 14.975567
335  3 0.0000  5.819328 11.638656 19.261455
336  3 0.0000  5.819328 11.638656 23.547342
337  3 0.0000  9.698880  0.000000  2.117904
338  3 0.0000  9.698880  0.000000  6.403792
339  3 0.0000  9.698880  0.000000 10.689679
340  3 0.0000  9.698880  0.000000 14.975567
341  3 0.0000  9.698880  0.000000 19.261455
342  3 0.0000  9.698880  0.000000 23.547342
343  3 0.0000  9.698880  3.879552  2.117904
344  3 0.0000  9.698880  3.879552  6.403792
345  3 0.0000  9.698880  3.879552 10.689679
346  3 0.0000  9.698880  3.879552 14.975567
347  3 0.0000  9.698880  3.879552 19.261455
348  3 0.0000  9.698880  3.879552 23.547342
349  3 0.0000  9.698880  7.759104  2.117904
350  3 0.0000  9.698880  7.759104  6.403792
351  3 0.0000  9.698880  7.759104 10.689679
352  3 0.0000  9.698880  7.759104 14.975567
353  3 0.0000  9.698880  7.759104 19.261455
354  3 0.0000  9.698880  7.759104 23.547342
355  3 0.0000  9.698880 11.638656  2.117904
356  3 0.0000  9.698880 11.638656  6.403792
357  3 0.0000  9.698880 11.638656 10.689679
358  3 0.0000  9.698880 11.638656 14.975567
359  3 0.0000  9.698880 11.638656 19.261455
360  3 0.0000  9.698880 11.638656 23.547342
361  3 0.0000 13.578432  0.000000  2.117904
362  3 0.0000 13.578432  0.000000  6.403792
363  3 0.0000 13.578432  0.000000 10.689679
364  3 0.0000 13.578432  0.000000 14.975567
365  3 0.0000 13.578432  0.000000 19.261455
366  3 0.0000 13.578432  0.000000 23.547342
367  3 0.0000 13.578432  3.879552  2.117904
368  3 0.0000 13.578432  3.879552  6.403792
369  3 0.0000 13.578432  3.879552 10.689679
370  3 0.0000 13.578432  3.879552 14.975567
371  3 0.0000 13.578432  3.879552 19.261455
372  3 0.0000 13.578432  3.879552 23.547342
373  3 0.0000 13.578432  7.759104  2.117904
374  3 0.0000 13.578432  7.759104  6.403792
375  3 0.0000 13.578432  7.759104 10.689679
376  3 0.0000 13.578432  7.759104 14.975567
377  3 0.0000 13.578432  7.759104 19.261455
378  3 0.0000 13.578432  7.759104 23.547342
379  3 0.0000 13.578432 11.638656  2.117904
380  3 0.0000 13.578432 11.638656  6.403792
381  3 0.0000 13.578432 11.638656 10.689679
382  3 0.0000 13.578432 11.638656 14.975567
383  3 0.0000 13.578432 11.638656 19.261455
384  3 0.0000 13.578432 11.638656 23.547342
385  3 0.0000  1.939776  1.939776  4.267811
386  3 0.0000  1.939776  1.939776  8.553699
387  3 0.0000  1.939776  1.939776 12.839586
388  3 0.0000  1.939776  1.939776 17.125474
389  3 0.0000  1.939776  1.939776 21.411362
390  3 0.0000  1.939776  1.939776 25.697249
391  3 0.0000  1.939776  5.819328  4.267811
392  3 0.0000  1.939776  5.819328  8.553699
393  3 0.0000  1.939776  5.819328 12.839586
394  3 0.0000  1.939776  5.819328 17.125474
395  3 0.0000  1.939776  5.819328 21.411362
396  3 0.0000  1.939776  5.819328 25.697249
397  3 0.0000  1.939776  9.698880  4.267811
398  3 0.0000  1.939776  9.698880  8.553699
399  3 0.0000  1.939776  9.698880 12.839586
400  3 0.0000  1.939776  9.698880 17.125474
401  3 0.0000  1.939776  9.698880 21.411362
402  3 0.0000  1.939776  9.698880 25.697249
403  3 0.0000  1.939776 13.578432  4.267811
404  3 0.0000  1.939776 13.578432  8.553699
405  3 0.0000  1.939776 13.578432 12.839586
406  3 0.0000  1.939776 13.578432 17.125474
407  3 0.0000  1.939776 13.578432 21.411362
408  3 0.0000  1.939776 13.578432 25.697249
409  3 0.0000  5.819328  1.939776  4.267811
410  3 0.0000  5.819328  1.939776  8.553699
411  3 0.0000  5.819328  1.939776 12.839586
412  3 0.0000  5.819328  1.939776 17.125474
413  3 0.0000  5.819328  1.939776 21.411362
414  3 0.0000  5.819328  1.939776 25.697249
415  3 0.0000  5.819328  5.819328  4.267811
416  3 0.0000  5.819328  5.819328  8.553699
417  3 0.0000  5.819328  5.819328 12.839586
418  3 0.0000  5.819328  5.819328 17.125474
419  3 0.0000  5.819328  5.819328 21.411362
420  3 0.0000  5.819328  5.819328 25.697249
421  3 0.0000  5.819328  9.698880  4.267811
422  3 0.0000  5.819328  9.698880  8.553699
423  3 0.0000  5.819328  9.698880 12.839586
424  3 0.0000  5.819328  9.698880 17.125474
425  3 0.0000  5.819328  9.698880 21.411362
426  3 0.0000  5.819328  9.698880 25.697249
427  3 0.0000  5.819328 13.578432  4.267811
428  3 0.0000  5.819328 13.578432  8.553699
429  3 0.0000  5.819328 13.578432 12.839586
430  3 0.0000  5.819328 13.578432 17.125474
431  3 0.0000  5.819328 13.578432 21.411362
432  3 0.0000  5.819328 13.578432 25.697249
433  3 0.0000  9.698880  1.939776  4.267811
434  3 0.0000  9.698880  1.939776  8.553699
435  3 0.0000  9.698880  1.939776 12.839586
436  3 0.0000  9.698880  1.939776 17.125474
437  3 0.0000  9.698880  1.939776 21.411362
438  3 0.0000  9.698880  1.939776 25.697249
439  3 0.0000  9.698880  5.819328  4.267811
440  3 0.0000  9.698880  5.819328  8.553699
441  3 0.0000  9.698880  5.819328 12.839586
442  3 0.0000  9.698880  5.819328 17.125474
443  3 0.0000  9.698880  5.819328 21.411362
444  3 0.0000  9.698880  5.819328 25.697249
445  3 0.0000  9.698880  9.698880  4.267811
446  3 0.0000  9.698880  9.698880  8.553699
447  3 0.0000  9.698880  9.698880 12.839586
448  3 0.0000  9.698880  9.698880 17.125474
449  3 0.0000  9.698880  9.698880 21.411362
450  3 0.0000  9.698880  9.698880 25.697249
451  3 0.0000  9.698880 13.578432  4.267811
452  3 0.0000  9.698880 13.578432  8.553699
453  3 0.0000  9.698880 13.578432 12.839586
454  3 0.0000  9.698880 13.578432 17.125474
455  3 0.0000  9.698880 13.578432 21.411362
456  3 0.0000  9.698880 13.578432 25.697249
457  3 0.0000 13.578432  1.939776  4.267811
458  3 0.0000 13.578432  1.939776  8.553699
459  3 0.0000 13.578432  1.939776 12.839586
460  3 0.0000 13.578432  1.939776 17.125474
461  3 0.0000 13.578432  1.939776 21.411362
462  3 0.0000 13.578432  1.939776 25.697249
463  3 0.0000 13.578432  5.819328  4.267811
464  3 0.0000 13.578432  5.819328  8.553699
465  3 0.0000 13.578432  5.819328 12.839586
466  3 0.0000 13.578432  5.819328 17.125474
467  3 0.0000 13.578432  5.819328 21.411362
468  3 0.0000 13.578432  5.819328 25.697249
469  3 0.0000 13.578432  9.698880  4.267811
470  3 0.0000 13.578432  9.698880  8.553699
471  3 0.0000 13.578432  9.698880 12.839586
472  3 0.0000 13.578432  9.698880 17.125474
473  3 0.0000 13.578432  9.698880 21.411362
474  3 0.0000 13.578432  9.698880 25.697249
475  3 0.0000 13.578432 13.578432  4.267811
476  3 0.0000 13.578432 13.578432  8.553699
477  3 0.0000 13.578432 13.578432 12.839586
478  3 0.0000 13.578432 13.578432 17.125474
479  3 0.0000 13.578432 13.578432 21.411362
480  3 0.0000 13.578432 13.578432 25.697249

