Generated by pymatgen.io.lammps.data.LammpsData

80  atoms

 3  atom types

0.000000 7.759104  xlo xhi
0.000000 7.759104  ylo yhi
0.000000 17.143550  zlo zhi

Masses

1   47.8670
2  207.2000
3   15.9994

Atoms

1   1 0.0000 1.939776 1.939776  2.496591
2   1 0.0000 1.939776 1.939776  6.782479
3   1 0.0000 1.939776 1.939776 11.068367
4   1 0.0000 1.939776 1.939776 15.354254
5   1 0.0000 1.939776 5.819328  2.496591
6   1 0.0000 1.939776 5.819328  6.782479
7   1 0.0000 1.939776 5.819328 11.068367
8   1 0.0000 1.939776 5.819328 15.354254
9   1 0.0000 5.819328 1.939776  2.496591
10  1 0.0000 5.819328 1.939776  6.782479
11  1 0.0000 5.819328 1.939776 11.068367
12  1 0.0000 5.819328 1.939776 15.354254
13  1 0.0000 5.819328 5.819328  2.496591
14  1 0.0000 5.819328 5.819328  6.782479
15  1 0.0000 5.819328 5.819328 11.068367
16  1 0.0000 5.819328 5.819328 15.354254
17  2 0.0000 0.000000 0.000000  0.529684
18  2 0.0000 0.000000 0.000000  4.815572
19  2 0.0000 0.000000 0.000000  9.101459
20  2 0.0000 0.000000 0.000000 13.387347
21  2 0.0000 0.000000 3.879552  0.529684
22  2 0.0000 0.000000 3.879552  4.815572
23  2 0.0000 0.000000 3.879552  9.101459
24  2 0.0000 0.000000 3.879552 13.387347
25  2 0.0000 3.879552 0.000000  0.529684
26  2 0.0000 3.879552 0.000000  4.815572
27  2 0.0000 3.879552 0.000000  9.101459
28  2 0.0000 3.879552 0.000000 13.387347
29  2 0.0000 3.879552 3.879552  0.529684
30  2 0.0000 3.879552 3.879552  4.815572
31  2 0.0000 3.879552 3.879552  9.101459
32  2 0.0000 3.879552 3.879552 13.387347
33  3 0.0000 0.000000 1.939776  2.117904
34  3 0.0000 0.000000 1.939776  6.403792
35  3 0.0000 0.000000 1.939776 10.689679
36  3 0.0000 0.000000 1.939776 14.975567
37  3 0.0000 0.000000 5.819328  2.117904
38  3 0.0000 0.000000 5.819328  6.403792
39  3 0.0000 0.000000 5.819328 10.689679
40  3 0.0000 0.000000 5.819328 14.975567
41  3 0.0000 3.879552 1.939776  2.117904
42  3 0.0000 3.879552 1.939776  6.403792
43  3 0.0000 3.879552 1.939776 10.689679
44  3 0.0000 3.879552 1.939776 14.975567
45  3 0.0000 3.879552 5.819328  2.117904
46  3 0.0000 3.879552 5.819328  6.403792
47  3 0.0000 3.879552 5.819328 10.689679
48  3 0.0000 3.879552 5.819328 14.975567
49  3 0.0000 1.939776 0.000000  2.117904
50  3 0.0000 1.939776 0.000000  6.403792
51  3 0.0000 1.939776 0.000000 10.689679
52  3 0.0000 1.939776 0.000000 14.975567
53  3 0.0000 1.939776 3.879552  2.117904
54  3 0.0000 1.939776 3.879552  6.403792
55  3 0.0000 1.939776 3.879552 10.689679
56  3 0.0000 1.939776 3.879552 14.975567
57  3 0.0000 5.819328 0.000000  2.117904
58  3 0.0000 5.819328 0.000000  6.403792
59  3 0.0000 5.819328 0.000000 10.689679
60  3 0.0000 5.819328 0.000000 14.975567
61  3 0.0000 5.819328 3.879552  2.117904
62  3 0.0000 5.819328 3.879552  6.403792
63  3 0.0000 5.819328 3.879552 10.689679
64  3 0.0000 5.819328 3.879552 14.975567
65  3 0.0000 1.939776 1.939776  4.267811
66  3 0.0000 1.939776 1.939776  8.553699
67  3 0.0000 1.939776 1.939776 12.839586
68  3 0.0000 1.939776 1.939776 17.125474
69  3 0.0000 1.939776 5.819328  4.267811
70  3 0.0000 1.939776 5.819328  8.553699
71  3 0.0000 1.939776 5.819328 12.839586
72  3 0.0000 1.939776 5.819328 17.125474
73  3 0.0000 5.819328 1.939776  4.267811
74  3 0.0000 5.819328 1.939776  8.553699
75  3 0.0000 5.819328 1.939776 12.839586
76  3 0.0000 5.819328 1.939776 17.125474
77  3 0.0000 5.819328 5.819328  4.267811
78  3 0.0000 5.819328 5.819328  8.553699
79  3 0.0000 5.819328 5.819328 12.839586
80  3 0.0000 5.819328 5.819328 17.125474

