Generated by pymatgen.io.lammps.data.LammpsData

320  atoms

  3  atom types

0.000000 10.554734  xlo xhi
0.000000 21.161561  ylo yhi
0.000000 74.042869  zlo zhi

Masses

1  132.905452
2  137.327000
3  126.904470

Atoms

1    1 0.0000 3.958025  6.175546  3.263338
2    1 0.0000 3.958025  6.175546 21.774055
3    1 0.0000 3.958025  6.175546 40.284772
4    1 0.0000 3.958025  6.175546 58.795490
5    1 0.0000 3.958025 16.756326  3.263338
6    1 0.0000 3.958025 16.756326 21.774055
7    1 0.0000 3.958025 16.756326 40.284772
8    1 0.0000 3.958025 16.756326 58.795490
9    1 0.0000 9.235392  6.175546  3.263338
10   1 0.0000 9.235392  6.175546 21.774055
11   1 0.0000 9.235392  6.175546 40.284772
12   1 0.0000 9.235392  6.175546 58.795490
13   1 0.0000 9.235392 16.756326  3.263338
14   1 0.0000 9.235392 16.756326 21.774055
15   1 0.0000 9.235392 16.756326 40.284772
16   1 0.0000 9.235392 16.756326 58.795490
17   1 0.0000 1.319342  4.405235 15.247380
18   1 0.0000 1.319342  4.405235 33.758097
19   1 0.0000 1.319342  4.405235 52.268814
20   1 0.0000 1.319342  4.405235 70.779532
21   1 0.0000 1.319342 14.986015 15.247380
22   1 0.0000 1.319342 14.986015 33.758097
23   1 0.0000 1.319342 14.986015 52.268814
24   1 0.0000 1.319342 14.986015 70.779532
25   1 0.0000 6.596708  4.405235 15.247380
26   1 0.0000 6.596708  4.405235 33.758097
27   1 0.0000 6.596708  4.405235 52.268814
28   1 0.0000 6.596708  4.405235 70.779532
29   1 0.0000 6.596708 14.986015 15.247380
30   1 0.0000 6.596708 14.986015 33.758097
31   1 0.0000 6.596708 14.986015 52.268814
32   1 0.0000 6.596708 14.986015 70.779532
33   1 0.0000 3.958025  0.885156  5.992021
34   1 0.0000 3.958025  0.885156 24.502738
35   1 0.0000 3.958025  0.885156 43.013456
36   1 0.0000 3.958025  0.885156 61.524173
37   1 0.0000 3.958025 11.465936  5.992021
38   1 0.0000 3.958025 11.465936 24.502738
39   1 0.0000 3.958025 11.465936 43.013456
40   1 0.0000 3.958025 11.465936 61.524173
41   1 0.0000 9.235392  0.885156  5.992021
42   1 0.0000 9.235392  0.885156 24.502738
43   1 0.0000 9.235392  0.885156 43.013456
44   1 0.0000 9.235392  0.885156 61.524173
45   1 0.0000 9.235392 11.465936  5.992021
46   1 0.0000 9.235392 11.465936 24.502738
47   1 0.0000 9.235392 11.465936 43.013456
48   1 0.0000 9.235392 11.465936 61.524173
49   1 0.0000 1.319342  9.695625 12.518696
50   1 0.0000 1.319342  9.695625 31.029414
51   1 0.0000 1.319342  9.695625 49.540131
52   1 0.0000 1.319342  9.695625 68.050848
53   1 0.0000 1.319342 20.276406 12.518696
54   1 0.0000 1.319342 20.276406 31.029414
55   1 0.0000 1.319342 20.276406 49.540131
56   1 0.0000 1.319342 20.276406 68.050848
57   1 0.0000 6.596708  9.695625 12.518696
58   1 0.0000 6.596708  9.695625 31.029414
59   1 0.0000 6.596708  9.695625 49.540131
60   1 0.0000 6.596708  9.695625 68.050848
61   1 0.0000 6.596708 20.276406 12.518696
62   1 0.0000 6.596708 20.276406 31.029414
63   1 0.0000 6.596708 20.276406 49.540131
64   1 0.0000 6.596708 20.276406 68.050848
65   2 0.0000 1.319342  7.134402  8.117144
66   2 0.0000 1.319342  7.134402 26.627861
67   2 0.0000 1.319342  7.134402 45.138579
68   2 0.0000 1.319342  7.134402 63.649296
69   2 0.0000 1.319342 17.715182  8.117144
70   2 0.0000 1.319342 17.715182 26.627861
71   2 0.0000 1.319342 17.715182 45.138579
72   2 0.0000 1.319342 17.715182 63.649296
73   2 0.0000 6.596708  7.134402  8.117144
74   2 0.0000 6.596708  7.134402 26.627861
75   2 0.0000 6.596708  7.134402 45.138579
76   2 0.0000 6.596708  7.134402 63.649296
77   2 0.0000 6.596708 17.715182  8.117144
78   2 0.0000 6.596708 17.715182 26.627861
79   2 0.0000 6.596708 17.715182 45.138579
80   2 0.0000 6.596708 17.715182 63.649296
81   2 0.0000 3.958025  3.446379 10.393573
82   2 0.0000 3.958025  3.446379 28.904291
83   2 0.0000 3.958025  3.446379 47.415008
84   2 0.0000 3.958025  3.446379 65.925725
85   2 0.0000 3.958025 14.027159 10.393573
86   2 0.0000 3.958025 14.027159 28.904291
87   2 0.0000 3.958025 14.027159 47.415008
88   2 0.0000 3.958025 14.027159 65.925725
89   2 0.0000 9.235392  3.446379 10.393573
90   2 0.0000 9.235392  3.446379 28.904291
91   2 0.0000 9.235392  3.446379 47.415008
92   2 0.0000 9.235392  3.446379 65.925725
93   2 0.0000 9.235392 14.027159 10.393573
94   2 0.0000 9.235392 14.027159 28.904291
95   2 0.0000 9.235392 14.027159 47.415008
96   2 0.0000 9.235392 14.027159 65.925725
97   2 0.0000 1.319342  1.844012  1.138215
98   2 0.0000 1.319342  1.844012 19.648932
99   2 0.0000 1.319342  1.844012 38.159649
100  2 0.0000 1.319342  1.844012 56.670367
101  2 0.0000 1.319342 12.424792  1.138215
102  2 0.0000 1.319342 12.424792 19.648932
103  2 0.0000 1.319342 12.424792 38.159649
104  2 0.0000 1.319342 12.424792 56.670367
105  2 0.0000 6.596708  1.844012  1.138215
106  2 0.0000 6.596708  1.844012 19.648932
107  2 0.0000 6.596708  1.844012 38.159649
108  2 0.0000 6.596708  1.844012 56.670367
109  2 0.0000 6.596708 12.424792  1.138215
110  2 0.0000 6.596708 12.424792 19.648932
111  2 0.0000 6.596708 12.424792 38.159649
112  2 0.0000 6.596708 12.424792 56.670367
113  2 0.0000 3.958025  8.736769 17.372503
114  2 0.0000 3.958025  8.736769 35.883220
115  2 0.0000 3.958025  8.736769 54.393937
116  2 0.0000 3.958025  8.736769 72.904655
117  2 0.0000 3.958025 19.317549 17.372503
118  2 0.0000 3.958025 19.317549 35.883220
119  2 0.0000 3.958025 19.317549 54.393937
120  2 0.0000 3.958025 19.317549 72.904655
121  2 0.0000 9.235392  8.736769 17.372503
122  2 0.0000 9.235392  8.736769 35.883220
123  2 0.0000 9.235392  8.736769 54.393937
124  2 0.0000 9.235392  8.736769 72.904655
125  2 0.0000 9.235392 19.317549 17.372503
126  2 0.0000 9.235392 19.317549 35.883220
127  2 0.0000 9.235392 19.317549 54.393937
128  2 0.0000 9.235392 19.317549 72.904655
129  3 0.0000 3.958025  8.928222  9.467781
130  3 0.0000 3.958025  8.928222 27.978499
131  3 0.0000 3.958025  8.928222 46.489216
132  3 0.0000 3.958025  8.928222 64.999933
133  3 0.0000 3.958025 19.509002  9.467781
134  3 0.0000 3.958025 19.509002 27.978499
135  3 0.0000 3.958025 19.509002 46.489216
136  3 0.0000 3.958025 19.509002 64.999933
137  3 0.0000 9.235392  8.928222  9.467781
138  3 0.0000 9.235392  8.928222 27.978499
139  3 0.0000 9.235392  8.928222 46.489216
140  3 0.0000 9.235392  8.928222 64.999933
141  3 0.0000 9.235392 19.509002  9.467781
142  3 0.0000 9.235392 19.509002 27.978499
143  3 0.0000 9.235392 19.509002 46.489216
144  3 0.0000 9.235392 19.509002 64.999933
145  3 0.0000 1.319342  1.652559  9.042936
146  3 0.0000 1.319342  1.652559 27.553653
147  3 0.0000 1.319342  1.652559 46.064371
148  3 0.0000 1.319342  1.652559 64.575088
149  3 0.0000 1.319342 12.233339  9.042936
150  3 0.0000 1.319342 12.233339 27.553653
151  3 0.0000 1.319342 12.233339 46.064371
152  3 0.0000 1.319342 12.233339 64.575088
153  3 0.0000 6.596708  1.652559  9.042936
154  3 0.0000 6.596708  1.652559 27.553653
155  3 0.0000 6.596708  1.652559 46.064371
156  3 0.0000 6.596708  1.652559 64.575088
157  3 0.0000 6.596708 12.233339  9.042936
158  3 0.0000 6.596708 12.233339 27.553653
159  3 0.0000 6.596708 12.233339 46.064371
160  3 0.0000 6.596708 12.233339 64.575088
161  3 0.0000 3.958025  3.637831 18.298295
162  3 0.0000 3.958025  3.637831 36.809012
163  3 0.0000 3.958025  3.637831 55.319729
164  3 0.0000 3.958025  3.637831 73.830447
165  3 0.0000 3.958025 14.218612 18.298295
166  3 0.0000 3.958025 14.218612 36.809012
167  3 0.0000 3.958025 14.218612 55.319729
168  3 0.0000 3.958025 14.218612 73.830447
169  3 0.0000 9.235392  3.637831 18.298295
170  3 0.0000 9.235392  3.637831 36.809012
171  3 0.0000 9.235392  3.637831 55.319729
172  3 0.0000 9.235392  3.637831 73.830447
173  3 0.0000 9.235392 14.218612 18.298295
174  3 0.0000 9.235392 14.218612 36.809012
175  3 0.0000 9.235392 14.218612 55.319729
176  3 0.0000 9.235392 14.218612 73.830447
177  3 0.0000 1.319342  6.942949  0.212423
178  3 0.0000 1.319342  6.942949 18.723140
179  3 0.0000 1.319342  6.942949 37.233857
180  3 0.0000 1.319342  6.942949 55.744575
181  3 0.0000 1.319342 17.523730  0.212423
182  3 0.0000 1.319342 17.523730 18.723140
183  3 0.0000 1.319342 17.523730 37.233857
184  3 0.0000 1.319342 17.523730 55.744575
185  3 0.0000 6.596708  6.942949  0.212423
186  3 0.0000 6.596708  6.942949 18.723140
187  3 0.0000 6.596708  6.942949 37.233857
188  3 0.0000 6.596708  6.942949 55.744575
189  3 0.0000 6.596708 17.523730  0.212423
190  3 0.0000 6.596708 17.523730 18.723140
191  3 0.0000 6.596708 17.523730 37.233857
192  3 0.0000 6.596708 17.523730 55.744575
193  3 0.0000 1.319342  5.578194 11.271739
194  3 0.0000 1.319342  5.578194 29.782456
195  3 0.0000 1.319342  5.578194 48.293173
196  3 0.0000 1.319342  5.578194 66.803891
197  3 0.0000 1.319342 16.158975 11.271739
198  3 0.0000 1.319342 16.158975 29.782456
199  3 0.0000 1.319342 16.158975 48.293173
200  3 0.0000 1.319342 16.158975 66.803891
201  3 0.0000 6.596708  5.578194 11.271739
202  3 0.0000 6.596708  5.578194 29.782456
203  3 0.0000 6.596708  5.578194 48.293173
204  3 0.0000 6.596708  5.578194 66.803891
205  3 0.0000 6.596708 16.158975 11.271739
206  3 0.0000 6.596708 16.158975 29.782456
207  3 0.0000 6.596708 16.158975 48.293173
208  3 0.0000 6.596708 16.158975 66.803891
209  3 0.0000 3.958025  5.002586  7.238979
210  3 0.0000 3.958025  5.002586 25.749696
211  3 0.0000 3.958025  5.002586 44.260413
212  3 0.0000 3.958025  5.002586 62.771131
213  3 0.0000 3.958025 15.583367  7.238979
214  3 0.0000 3.958025 15.583367 25.749696
215  3 0.0000 3.958025 15.583367 44.260413
216  3 0.0000 3.958025 15.583367 62.771131
217  3 0.0000 9.235392  5.002586  7.238979
218  3 0.0000 9.235392  5.002586 25.749696
219  3 0.0000 9.235392  5.002586 44.260413
220  3 0.0000 9.235392  5.002586 62.771131
221  3 0.0000 9.235392 15.583367  7.238979
222  3 0.0000 9.235392 15.583367 25.749696
223  3 0.0000 9.235392 15.583367 44.260413
224  3 0.0000 9.235392 15.583367 62.771131
225  3 0.0000 1.319342  0.287804 16.494337
226  3 0.0000 1.319342  0.287804 35.005055
227  3 0.0000 1.319342  0.287804 53.515772
228  3 0.0000 1.319342  0.287804 72.026489
229  3 0.0000 1.319342 10.868584 16.494337
230  3 0.0000 1.319342 10.868584 35.005055
231  3 0.0000 1.319342 10.868584 53.515772
232  3 0.0000 1.319342 10.868584 72.026489
233  3 0.0000 6.596708  0.287804 16.494337
234  3 0.0000 6.596708  0.287804 35.005055
235  3 0.0000 6.596708  0.287804 53.515772
236  3 0.0000 6.596708  0.287804 72.026489
237  3 0.0000 6.596708 10.868584 16.494337
238  3 0.0000 6.596708 10.868584 35.005055
239  3 0.0000 6.596708 10.868584 53.515772
240  3 0.0000 6.596708 10.868584 72.026489
241  3 0.0000 3.958025 10.292977  2.016380
242  3 0.0000 3.958025 10.292977 20.527097
243  3 0.0000 3.958025 10.292977 39.037815
244  3 0.0000 3.958025 10.292977 57.548532
245  3 0.0000 3.958025 20.873757  2.016380
246  3 0.0000 3.958025 20.873757 20.527097
247  3 0.0000 3.958025 20.873757 39.037815
248  3 0.0000 3.958025 20.873757 57.548532
249  3 0.0000 9.235392 10.292977  2.016380
250  3 0.0000 9.235392 10.292977 20.527097
251  3 0.0000 9.235392 10.292977 39.037815
252  3 0.0000 9.235392 10.292977 57.548532
253  3 0.0000 9.235392 20.873757  2.016380
254  3 0.0000 9.235392 20.873757 20.527097
255  3 0.0000 9.235392 20.873757 39.037815
256  3 0.0000 9.235392 20.873757 57.548532
257  3 0.0000 1.319342  8.585807  5.081604
258  3 0.0000 1.319342  8.585807 23.592322
259  3 0.0000 1.319342  8.585807 42.103039
260  3 0.0000 1.319342  8.585807 60.613756
261  3 0.0000 1.319342 19.166587  5.081604
262  3 0.0000 1.319342 19.166587 23.592322
263  3 0.0000 1.319342 19.166587 42.103039
264  3 0.0000 1.319342 19.166587 60.613756
265  3 0.0000 6.596708  8.585807  5.081604
266  3 0.0000 6.596708  8.585807 23.592322
267  3 0.0000 6.596708  8.585807 42.103039
268  3 0.0000 6.596708  8.585807 60.613756
269  3 0.0000 6.596708 19.166587  5.081604
270  3 0.0000 6.596708 19.166587 23.592322
271  3 0.0000 6.596708 19.166587 42.103039
272  3 0.0000 6.596708 19.166587 60.613756
273  3 0.0000 3.958025  1.994974 13.429113
274  3 0.0000 3.958025  1.994974 31.939830
275  3 0.0000 3.958025  1.994974 50.450548
276  3 0.0000 3.958025  1.994974 68.961265
277  3 0.0000 3.958025 12.575755 13.429113
278  3 0.0000 3.958025 12.575755 31.939830
279  3 0.0000 3.958025 12.575755 50.450548
280  3 0.0000 3.958025 12.575755 68.961265
281  3 0.0000 9.235392  1.994974 13.429113
282  3 0.0000 9.235392  1.994974 31.939830
283  3 0.0000 9.235392  1.994974 50.450548
284  3 0.0000 9.235392  1.994974 68.961265
285  3 0.0000 9.235392 12.575755 13.429113
286  3 0.0000 9.235392 12.575755 31.939830
287  3 0.0000 9.235392 12.575755 50.450548
288  3 0.0000 9.235392 12.575755 68.961265
289  3 0.0000 1.319342  3.295416  4.173754
290  3 0.0000 1.319342  3.295416 22.684472
291  3 0.0000 1.319342  3.295416 41.195189
292  3 0.0000 1.319342  3.295416 59.705906
293  3 0.0000 1.319342 13.876197  4.173754
294  3 0.0000 1.319342 13.876197 22.684472
295  3 0.0000 1.319342 13.876197 41.195189
296  3 0.0000 1.319342 13.876197 59.705906
297  3 0.0000 6.596708  3.295416  4.173754
298  3 0.0000 6.596708  3.295416 22.684472
299  3 0.0000 6.596708  3.295416 41.195189
300  3 0.0000 6.596708  3.295416 59.705906
301  3 0.0000 6.596708 13.876197  4.173754
302  3 0.0000 6.596708 13.876197 22.684472
303  3 0.0000 6.596708 13.876197 41.195189
304  3 0.0000 6.596708 13.876197 59.705906
305  3 0.0000 3.958025  7.285364 14.336963
306  3 0.0000 3.958025  7.285364 32.847680
307  3 0.0000 3.958025  7.285364 51.358398
308  3 0.0000 3.958025  7.285364 69.869115
309  3 0.0000 3.958025 17.866145 14.336963
310  3 0.0000 3.958025 17.866145 32.847680
311  3 0.0000 3.958025 17.866145 51.358398
312  3 0.0000 3.958025 17.866145 69.869115
313  3 0.0000 9.235392  7.285364 14.336963
314  3 0.0000 9.235392  7.285364 32.847680
315  3 0.0000 9.235392  7.285364 51.358398
316  3 0.0000 9.235392  7.285364 69.869115
317  3 0.0000 9.235392 17.866145 14.336963
318  3 0.0000 9.235392 17.866145 32.847680
319  3 0.0000 9.235392 17.866145 51.358398
320  3 0.0000 9.235392 17.866145 69.869115

