Generated by pymatgen.io.lammps.data.LammpsData

1920  atoms

   3  atom types

0.000000 21.109467  xlo xhi
0.000000 42.323122  ylo yhi
0.000000 111.064304  zlo zhi

Masses

1  132.905452
2  137.327000
3  126.904470

Atoms

1     1 0.0000  3.958025  6.175546   3.263338
2     1 0.0000  3.958025  6.175546  21.774055
3     1 0.0000  3.958025  6.175546  40.284772
4     1 0.0000  3.958025  6.175546  58.795490
5     1 0.0000  3.958025  6.175546  77.306207
6     1 0.0000  3.958025  6.175546  95.816924
7     1 0.0000  3.958025 16.756326   3.263338
8     1 0.0000  3.958025 16.756326  21.774055
9     1 0.0000  3.958025 16.756326  40.284772
10    1 0.0000  3.958025 16.756326  58.795490
11    1 0.0000  3.958025 16.756326  77.306207
12    1 0.0000  3.958025 16.756326  95.816924
13    1 0.0000  3.958025 27.337107   3.263338
14    1 0.0000  3.958025 27.337107  21.774055
15    1 0.0000  3.958025 27.337107  40.284772
16    1 0.0000  3.958025 27.337107  58.795490
17    1 0.0000  3.958025 27.337107  77.306207
18    1 0.0000  3.958025 27.337107  95.816924
19    1 0.0000  3.958025 37.917887   3.263338
20    1 0.0000  3.958025 37.917887  21.774055
21    1 0.0000  3.958025 37.917887  40.284772
22    1 0.0000  3.958025 37.917887  58.795490
23    1 0.0000  3.958025 37.917887  77.306207
24    1 0.0000  3.958025 37.917887  95.816924
25    1 0.0000  9.235392  6.175546   3.263338
26    1 0.0000  9.235392  6.175546  21.774055
27    1 0.0000  9.235392  6.175546  40.284772
28    1 0.0000  9.235392  6.175546  58.795490
29    1 0.0000  9.235392  6.175546  77.306207
30    1 0.0000  9.235392  6.175546  95.816924
31    1 0.0000  9.235392 16.756326   3.263338
32    1 0.0000  9.235392 16.756326  21.774055
33    1 0.0000  9.235392 16.756326  40.284772
34    1 0.0000  9.235392 16.756326  58.795490
35    1 0.0000  9.235392 16.756326  77.306207
36    1 0.0000  9.235392 16.756326  95.816924
37    1 0.0000  9.235392 27.337107   3.263338
38    1 0.0000  9.235392 27.337107  21.774055
39    1 0.0000  9.235392 27.337107  40.284772
40    1 0.0000  9.235392 27.337107  58.795490
41    1 0.0000  9.235392 27.337107  77.306207
42    1 0.0000  9.235392 27.337107  95.816924
43    1 0.0000  9.235392 37.917887   3.263338
44    1 0.0000  9.235392 37.917887  21.774055
45    1 0.0000  9.235392 37.917887  40.284772
46    1 0.0000  9.235392 37.917887  58.795490
47    1 0.0000  9.235392 37.917887  77.306207
48    1 0.0000  9.235392 37.917887  95.816924
49    1 0.0000 14.512759  6.175546   3.263338
50    1 0.0000 14.512759  6.175546  21.774055
51    1 0.0000 14.512759  6.175546  40.284772
52    1 0.0000 14.512759  6.175546  58.795490
53    1 0.0000 14.512759  6.175546  77.306207
54    1 0.0000 14.512759  6.175546  95.816924
55    1 0.0000 14.512759 16.756326   3.263338
56    1 0.0000 14.512759 16.756326  21.774055
57    1 0.0000 14.512759 16.756326  40.284772
58    1 0.0000 14.512759 16.756326  58.795490
59    1 0.0000 14.512759 16.756326  77.306207
60    1 0.0000 14.512759 16.756326  95.816924
61    1 0.0000 14.512759 27.337107   3.263338
62    1 0.0000 14.512759 27.337107  21.774055
63    1 0.0000 14.512759 27.337107  40.284772
64    1 0.0000 14.512759 27.337107  58.795490
65    1 0.0000 14.512759 27.337107  77.306207
66    1 0.0000 14.512759 27.337107  95.816924
67    1 0.0000 14.512759 37.917887   3.263338
68    1 0.0000 14.512759 37.917887  21.774055
69    1 0.0000 14.512759 37.917887  40.284772
70    1 0.0000 14.512759 37.917887  58.795490
71    1 0.0000 14.512759 37.917887  77.306207
72    1 0.0000 14.512759 37.917887  95.816924
73    1 0.0000 19.790125  6.175546   3.263338
74    1 0.0000 19.790125  6.175546  21.774055
75    1 0.0000 19.790125  6.175546  40.284772
76    1 0.0000 19.790125  6.175546  58.795490
77    1 0.0000 19.790125  6.175546  77.306207
78    1 0.0000 19.790125  6.175546  95.816924
79    1 0.0000 19.790125 16.756326   3.263338
80    1 0.0000 19.790125 16.756326  21.774055
81    1 0.0000 19.790125 16.756326  40.284772
82    1 0.0000 19.790125 16.756326  58.795490
83    1 0.0000 19.790125 16.756326  77.306207
84    1 0.0000 19.790125 16.756326  95.816924
85    1 0.0000 19.790125 27.337107   3.263338
86    1 0.0000 19.790125 27.337107  21.774055
87    1 0.0000 19.790125 27.337107  40.284772
88    1 0.0000 19.790125 27.337107  58.795490
89    1 0.0000 19.790125 27.337107  77.306207
90    1 0.0000 19.790125 27.337107  95.816924
91    1 0.0000 19.790125 37.917887   3.263338
92    1 0.0000 19.790125 37.917887  21.774055
93    1 0.0000 19.790125 37.917887  40.284772
94    1 0.0000 19.790125 37.917887  58.795490
95    1 0.0000 19.790125 37.917887  77.306207
96    1 0.0000 19.790125 37.917887  95.816924
97    1 0.0000  1.319342  4.405235  15.247380
98    1 0.0000  1.319342  4.405235  33.758097
99    1 0.0000  1.319342  4.405235  52.268814
100   1 0.0000  1.319342  4.405235  70.779532
101   1 0.0000  1.319342  4.405235  89.290249
102   1 0.0000  1.319342  4.405235 107.800966
103   1 0.0000  1.319342 14.986015  15.247380
104   1 0.0000  1.319342 14.986015  33.758097
105   1 0.0000  1.319342 14.986015  52.268814
106   1 0.0000  1.319342 14.986015  70.779532
107   1 0.0000  1.319342 14.986015  89.290249
108   1 0.0000  1.319342 14.986015 107.800966
109   1 0.0000  1.319342 25.566796  15.247380
110   1 0.0000  1.319342 25.566796  33.758097
111   1 0.0000  1.319342 25.566796  52.268814
112   1 0.0000  1.319342 25.566796  70.779532
113   1 0.0000  1.319342 25.566796  89.290249
114   1 0.0000  1.319342 25.566796 107.800966
115   1 0.0000  1.319342 36.147576  15.247380
116   1 0.0000  1.319342 36.147576  33.758097
117   1 0.0000  1.319342 36.147576  52.268814
118   1 0.0000  1.319342 36.147576  70.779532
119   1 0.0000  1.319342 36.147576  89.290249
120   1 0.0000  1.319342 36.147576 107.800966
121   1 0.0000  6.596708  4.405235  15.247380
122   1 0.0000  6.596708  4.405235  33.758097
123   1 0.0000  6.596708  4.405235  52.268814
124   1 0.0000  6.596708  4.405235  70.779532
125   1 0.0000  6.596708  4.405235  89.290249
126   1 0.0000  6.596708  4.405235 107.800966
127   1 0.0000  6.596708 14.986015  15.247380
128   1 0.0000  6.596708 14.986015  33.758097
129   1 0.0000  6.596708 14.986015  52.268814
130   1 0.0000  6.596708 14.986015  70.779532
131   1 0.0000  6.596708 14.986015  89.290249
132   1 0.0000  6.596708 14.986015 107.800966
133   1 0.0000  6.596708 25.566796  15.247380
134   1 0.0000  6.596708 25.566796  33.758097
135   1 0.0000  6.596708 25.566796  52.268814
136   1 0.0000  6.596708 25.566796  70.779532
137   1 0.0000  6.596708 25.566796  89.290249
138   1 0.0000  6.596708 25.566796 107.800966
139   1 0.0000  6.596708 36.147576  15.247380
140   1 0.0000  6.596708 36.147576  33.758097
141   1 0.0000  6.596708 36.147576  52.268814
142   1 0.0000  6.596708 36.147576  70.779532
143   1 0.0000  6.596708 36.147576  89.290249
144   1 0.0000  6.596708 36.147576 107.800966
145   1 0.0000 11.874075  4.405235  15.247380
146   1 0.0000 11.874075  4.405235  33.758097
147   1 0.0000 11.874075  4.405235  52.268814
148   1 0.0000 11.874075  4.405235  70.779532
149   1 0.0000 11.874075  4.405235  89.290249
150   1 0.0000 11.874075  4.405235 107.800966
151   1 0.0000 11.874075 14.986015  15.247380
152   1 0.0000 11.874075 14.986015  33.758097
153   1 0.0000 11.874075 14.986015  52.268814
154   1 0.0000 11.874075 14.986015  70.779532
155   1 0.0000 11.874075 14.986015  89.290249
156   1 0.0000 11.874075 14.986015 107.800966
157   1 0.0000 11.874075 25.566796  15.247380
158   1 0.0000 11.874075 25.566796  33.758097
159   1 0.0000 11.874075 25.566796  52.268814
160   1 0.0000 11.874075 25.566796  70.779532
161   1 0.0000 11.874075 25.566796  89.290249
162   1 0.0000 11.874075 25.566796 107.800966
163   1 0.0000 11.874075 36.147576  15.247380
164   1 0.0000 11.874075 36.147576  33.758097
165   1 0.0000 11.874075 36.147576  52.268814
166   1 0.0000 11.874075 36.147576  70.779532
167   1 0.0000 11.874075 36.147576  89.290249
168   1 0.0000 11.874075 36.147576 107.800966
169   1 0.0000 17.151442  4.405235  15.247380
170   1 0.0000 17.151442  4.405235  33.758097
171   1 0.0000 17.151442  4.405235  52.268814
172   1 0.0000 17.151442  4.405235  70.779532
173   1 0.0000 17.151442  4.405235  89.290249
174   1 0.0000 17.151442  4.405235 107.800966
175   1 0.0000 17.151442 14.986015  15.247380
176   1 0.0000 17.151442 14.986015  33.758097
177   1 0.0000 17.151442 14.986015  52.268814
178   1 0.0000 17.151442 14.986015  70.779532
179   1 0.0000 17.151442 14.986015  89.290249
180   1 0.0000 17.151442 14.986015 107.800966
181   1 0.0000 17.151442 25.566796  15.247380
182   1 0.0000 17.151442 25.566796  33.758097
183   1 0.0000 17.151442 25.566796  52.268814
184   1 0.0000 17.151442 25.566796  70.779532
185   1 0.0000 17.151442 25.566796  89.290249
186   1 0.0000 17.151442 25.566796 107.800966
187   1 0.0000 17.151442 36.147576  15.247380
188   1 0.0000 17.151442 36.147576  33.758097
189   1 0.0000 17.151442 36.147576  52.268814
190   1 0.0000 17.151442 36.147576  70.779532
191   1 0.0000 17.151442 36.147576  89.290249
192   1 0.0000 17.151442 36.147576 107.800966
193   1 0.0000  3.958025  0.885156   5.992021
194   1 0.0000  3.958025  0.885156  24.502738
195   1 0.0000  3.958025  0.885156  43.013456
196   1 0.0000  3.958025  0.885156  61.524173
197   1 0.0000  3.958025  0.885156  80.034890
198   1 0.0000  3.958025  0.885156  98.545608
199   1 0.0000  3.958025 11.465936   5.992021
200   1 0.0000  3.958025 11.465936  24.502738
201   1 0.0000  3.958025 11.465936  43.013456
202   1 0.0000  3.958025 11.465936  61.524173
203   1 0.0000  3.958025 11.465936  80.034890
204   1 0.0000  3.958025 11.465936  98.545608
205   1 0.0000  3.958025 22.046717   5.992021
206   1 0.0000  3.958025 22.046717  24.502738
207   1 0.0000  3.958025 22.046717  43.013456
208   1 0.0000  3.958025 22.046717  61.524173
209   1 0.0000  3.958025 22.046717  80.034890
210   1 0.0000  3.958025 22.046717  98.545608
211   1 0.0000  3.958025 32.627497   5.992021
212   1 0.0000  3.958025 32.627497  24.502738
213   1 0.0000  3.958025 32.627497  43.013456
214   1 0.0000  3.958025 32.627497  61.524173
215   1 0.0000  3.958025 32.627497  80.034890
216   1 0.0000  3.958025 32.627497  98.545608
217   1 0.0000  9.235392  0.885156   5.992021
218   1 0.0000  9.235392  0.885156  24.502738
219   1 0.0000  9.235392  0.885156  43.013456
220   1 0.0000  9.235392  0.885156  61.524173
221   1 0.0000  9.235392  0.885156  80.034890
222   1 0.0000  9.235392  0.885156  98.545608
223   1 0.0000  9.235392 11.465936   5.992021
224   1 0.0000  9.235392 11.465936  24.502738
225   1 0.0000  9.235392 11.465936  43.013456
226   1 0.0000  9.235392 11.465936  61.524173
227   1 0.0000  9.235392 11.465936  80.034890
228   1 0.0000  9.235392 11.465936  98.545608
229   1 0.0000  9.235392 22.046717   5.992021
230   1 0.0000  9.235392 22.046717  24.502738
231   1 0.0000  9.235392 22.046717  43.013456
232   1 0.0000  9.235392 22.046717  61.524173
233   1 0.0000  9.235392 22.046717  80.034890
234   1 0.0000  9.235392 22.046717  98.545608
235   1 0.0000  9.235392 32.627497   5.992021
236   1 0.0000  9.235392 32.627497  24.502738
237   1 0.0000  9.235392 32.627497  43.013456
238   1 0.0000  9.235392 32.627497  61.524173
239   1 0.0000  9.235392 32.627497  80.034890
240   1 0.0000  9.235392 32.627497  98.545608
241   1 0.0000 14.512759  0.885156   5.992021
242   1 0.0000 14.512759  0.885156  24.502738
243   1 0.0000 14.512759  0.885156  43.013456
244   1 0.0000 14.512759  0.885156  61.524173
245   1 0.0000 14.512759  0.885156  80.034890
246   1 0.0000 14.512759  0.885156  98.545608
247   1 0.0000 14.512759 11.465936   5.992021
248   1 0.0000 14.512759 11.465936  24.502738
249   1 0.0000 14.512759 11.465936  43.013456
250   1 0.0000 14.512759 11.465936  61.524173
251   1 0.0000 14.512759 11.465936  80.034890
252   1 0.0000 14.512759 11.465936  98.545608
253   1 0.0000 14.512759 22.046717   5.992021
254   1 0.0000 14.512759 22.046717  24.502738
255   1 0.0000 14.512759 22.046717  43.013456
256   1 0.0000 14.512759 22.046717  61.524173
257   1 0.0000 14.512759 22.046717  80.034890
258   1 0.0000 14.512759 22.046717  98.545608
259   1 0.0000 14.512759 32.627497   5.992021
260   1 0.0000 14.512759 32.627497  24.502738
261   1 0.0000 14.512759 32.627497  43.013456
262   1 0.0000 14.512759 32.627497  61.524173
263   1 0.0000 14.512759 32.627497  80.034890
264   1 0.0000 14.512759 32.627497  98.545608
265   1 0.0000 19.790125  0.885156   5.992021
266   1 0.0000 19.790125  0.885156  24.502738
267   1 0.0000 19.790125  0.885156  43.013456
268   1 0.0000 19.790125  0.885156  61.524173
269   1 0.0000 19.790125  0.885156  80.034890
270   1 0.0000 19.790125  0.885156  98.545608
271   1 0.0000 19.790125 11.465936   5.992021
272   1 0.0000 19.790125 11.465936  24.502738
273   1 0.0000 19.790125 11.465936  43.013456
274   1 0.0000 19.790125 11.465936  61.524173
275   1 0.0000 19.790125 11.465936  80.034890
276   1 0.0000 19.790125 11.465936  98.545608
277   1 0.0000 19.790125 22.046717   5.992021
278   1 0.0000 19.790125 22.046717  24.502738
279   1 0.0000 19.790125 22.046717  43.013456
280   1 0.0000 19.790125 22.046717  61.524173
281   1 0.0000 19.790125 22.046717  80.034890
282   1 0.0000 19.790125 22.046717  98.545608
283   1 0.0000 19.790125 32.627497   5.992021
284   1 0.0000 19.790125 32.627497  24.502738
285   1 0.0000 19.790125 32.627497  43.013456
286   1 0.0000 19.790125 32.627497  61.524173
287   1 0.0000 19.790125 32.627497  80.034890
288   1 0.0000 19.790125 32.627497  98.545608
289   1 0.0000  1.319342  9.695625  12.518696
290   1 0.0000  1.319342  9.695625  31.029414
291   1 0.0000  1.319342  9.695625  49.540131
292   1 0.0000  1.319342  9.695625  68.050848
293   1 0.0000  1.319342  9.695625  86.561566
294   1 0.0000  1.319342  9.695625 105.072283
295   1 0.0000  1.319342 20.276406  12.518696
296   1 0.0000  1.319342 20.276406  31.029414
297   1 0.0000  1.319342 20.276406  49.540131
298   1 0.0000  1.319342 20.276406  68.050848
299   1 0.0000  1.319342 20.276406  86.561566
300   1 0.0000  1.319342 20.276406 105.072283
301   1 0.0000  1.319342 30.857186  12.518696
302   1 0.0000  1.319342 30.857186  31.029414
303   1 0.0000  1.319342 30.857186  49.540131
304   1 0.0000  1.319342 30.857186  68.050848
305   1 0.0000  1.319342 30.857186  86.561566
306   1 0.0000  1.319342 30.857186 105.072283
307   1 0.0000  1.319342 41.437967  12.518696
308   1 0.0000  1.319342 41.437967  31.029414
309   1 0.0000  1.319342 41.437967  49.540131
310   1 0.0000  1.319342 41.437967  68.050848
311   1 0.0000  1.319342 41.437967  86.561566
312   1 0.0000  1.319342 41.437967 105.072283
313   1 0.0000  6.596708  9.695625  12.518696
314   1 0.0000  6.596708  9.695625  31.029414
315   1 0.0000  6.596708  9.695625  49.540131
316   1 0.0000  6.596708  9.695625  68.050848
317   1 0.0000  6.596708  9.695625  86.561566
318   1 0.0000  6.596708  9.695625 105.072283
319   1 0.0000  6.596708 20.276406  12.518696
320   1 0.0000  6.596708 20.276406  31.029414
321   1 0.0000  6.596708 20.276406  49.540131
322   1 0.0000  6.596708 20.276406  68.050848
323   1 0.0000  6.596708 20.276406  86.561566
324   1 0.0000  6.596708 20.276406 105.072283
325   1 0.0000  6.596708 30.857186  12.518696
326   1 0.0000  6.596708 30.857186  31.029414
327   1 0.0000  6.596708 30.857186  49.540131
328   1 0.0000  6.596708 30.857186  68.050848
329   1 0.0000  6.596708 30.857186  86.561566
330   1 0.0000  6.596708 30.857186 105.072283
331   1 0.0000  6.596708 41.437967  12.518696
332   1 0.0000  6.596708 41.437967  31.029414
333   1 0.0000  6.596708 41.437967  49.540131
334   1 0.0000  6.596708 41.437967  68.050848
335   1 0.0000  6.596708 41.437967  86.561566
336   1 0.0000  6.596708 41.437967 105.072283
337   1 0.0000 11.874075  9.695625  12.518696
338   1 0.0000 11.874075  9.695625  31.029414
339   1 0.0000 11.874075  9.695625  49.540131
340   1 0.0000 11.874075  9.695625  68.050848
341   1 0.0000 11.874075  9.695625  86.561566
342   1 0.0000 11.874075  9.695625 105.072283
343   1 0.0000 11.874075 20.276406  12.518696
344   1 0.0000 11.874075 20.276406  31.029414
345   1 0.0000 11.874075 20.276406  49.540131
346   1 0.0000 11.874075 20.276406  68.050848
347   1 0.0000 11.874075 20.276406  86.561566
348   1 0.0000 11.874075 20.276406 105.072283
349   1 0.0000 11.874075 30.857186  12.518696
350   1 0.0000 11.874075 30.857186  31.029414
351   1 0.0000 11.874075 30.857186  49.540131
352   1 0.0000 11.874075 30.857186  68.050848
353   1 0.0000 11.874075 30.857186  86.561566
354   1 0.0000 11.874075 30.857186 105.072283
355   1 0.0000 11.874075 41.437967  12.518696
356   1 0.0000 11.874075 41.437967  31.029414
357   1 0.0000 11.874075 41.437967  49.540131
358   1 0.0000 11.874075 41.437967  68.050848
359   1 0.0000 11.874075 41.437967  86.561566
360   1 0.0000 11.874075 41.437967 105.072283
361   1 0.0000 17.151442  9.695625  12.518696
362   1 0.0000 17.151442  9.695625  31.029414
363   1 0.0000 17.151442  9.695625  49.540131
364   1 0.0000 17.151442  9.695625  68.050848
365   1 0.0000 17.151442  9.695625  86.561566
366   1 0.0000 17.151442  9.695625 105.072283
367   1 0.0000 17.151442 20.276406  12.518696
368   1 0.0000 17.151442 20.276406  31.029414
369   1 0.0000 17.151442 20.276406  49.540131
370   1 0.0000 17.151442 20.276406  68.050848
371   1 0.0000 17.151442 20.276406  86.561566
372   1 0.0000 17.151442 20.276406 105.072283
373   1 0.0000 17.151442 30.857186  12.518696
374   1 0.0000 17.151442 30.857186  31.029414
375   1 0.0000 17.151442 30.857186  49.540131
376   1 0.0000 17.151442 30.857186  68.050848
377   1 0.0000 17.151442 30.857186  86.561566
378   1 0.0000 17.151442 30.857186 105.072283
379   1 0.0000 17.151442 41.437967  12.518696
380   1 0.0000 17.151442 41.437967  31.029414
381   1 0.0000 17.151442 41.437967  49.540131
382   1 0.0000 17.151442 41.437967  68.050848
383   1 0.0000 17.151442 41.437967  86.561566
384   1 0.0000 17.151442 41.437967 105.072283
385   2 0.0000  1.319342  7.134402   8.117144
386   2 0.0000  1.319342  7.134402  26.627861
387   2 0.0000  1.319342  7.134402  45.138579
388   2 0.0000  1.319342  7.134402  63.649296
389   2 0.0000  1.319342  7.134402  82.160013
390   2 0.0000  1.319342  7.134402 100.670731
391   2 0.0000  1.319342 17.715182   8.117144
392   2 0.0000  1.319342 17.715182  26.627861
393   2 0.0000  1.319342 17.715182  45.138579
394   2 0.0000  1.319342 17.715182  63.649296
395   2 0.0000  1.319342 17.715182  82.160013
396   2 0.0000  1.319342 17.715182 100.670731
397   2 0.0000  1.319342 28.295963   8.117144
398   2 0.0000  1.319342 28.295963  26.627861
399   2 0.0000  1.319342 28.295963  45.138579
400   2 0.0000  1.319342 28.295963  63.649296
401   2 0.0000  1.319342 28.295963  82.160013
402   2 0.0000  1.319342 28.295963 100.670731
403   2 0.0000  1.319342 38.876743   8.117144
404   2 0.0000  1.319342 38.876743  26.627861
405   2 0.0000  1.319342 38.876743  45.138579
406   2 0.0000  1.319342 38.876743  63.649296
407   2 0.0000  1.319342 38.876743  82.160013
408   2 0.0000  1.319342 38.876743 100.670731
409   2 0.0000  6.596708  7.134402   8.117144
410   2 0.0000  6.596708  7.134402  26.627861
411   2 0.0000  6.596708  7.134402  45.138579
412   2 0.0000  6.596708  7.134402  63.649296
413   2 0.0000  6.596708  7.134402  82.160013
414   2 0.0000  6.596708  7.134402 100.670731
415   2 0.0000  6.596708 17.715182   8.117144
416   2 0.0000  6.596708 17.715182  26.627861
417   2 0.0000  6.596708 17.715182  45.138579
418   2 0.0000  6.596708 17.715182  63.649296
419   2 0.0000  6.596708 17.715182  82.160013
420   2 0.0000  6.596708 17.715182 100.670731
421   2 0.0000  6.596708 28.295963   8.117144
422   2 0.0000  6.596708 28.295963  26.627861
423   2 0.0000  6.596708 28.295963  45.138579
424   2 0.0000  6.596708 28.295963  63.649296
425   2 0.0000  6.596708 28.295963  82.160013
426   2 0.0000  6.596708 28.295963 100.670731
427   2 0.0000  6.596708 38.876743   8.117144
428   2 0.0000  6.596708 38.876743  26.627861
429   2 0.0000  6.596708 38.876743  45.138579
430   2 0.0000  6.596708 38.876743  63.649296
431   2 0.0000  6.596708 38.876743  82.160013
432   2 0.0000  6.596708 38.876743 100.670731
433   2 0.0000 11.874075  7.134402   8.117144
434   2 0.0000 11.874075  7.134402  26.627861
435   2 0.0000 11.874075  7.134402  45.138579
436   2 0.0000 11.874075  7.134402  63.649296
437   2 0.0000 11.874075  7.134402  82.160013
438   2 0.0000 11.874075  7.134402 100.670731
439   2 0.0000 11.874075 17.715182   8.117144
440   2 0.0000 11.874075 17.715182  26.627861
441   2 0.0000 11.874075 17.715182  45.138579
442   2 0.0000 11.874075 17.715182  63.649296
443   2 0.0000 11.874075 17.715182  82.160013
444   2 0.0000 11.874075 17.715182 100.670731
445   2 0.0000 11.874075 28.295963   8.117144
446   2 0.0000 11.874075 28.295963  26.627861
447   2 0.0000 11.874075 28.295963  45.138579
448   2 0.0000 11.874075 28.295963  63.649296
449   2 0.0000 11.874075 28.295963  82.160013
450   2 0.0000 11.874075 28.295963 100.670731
451   2 0.0000 11.874075 38.876743   8.117144
452   2 0.0000 11.874075 38.876743  26.627861
453   2 0.0000 11.874075 38.876743  45.138579
454   2 0.0000 11.874075 38.876743  63.649296
455   2 0.0000 11.874075 38.876743  82.160013
456   2 0.0000 11.874075 38.876743 100.670731
457   2 0.0000 17.151442  7.134402   8.117144
458   2 0.0000 17.151442  7.134402  26.627861
459   2 0.0000 17.151442  7.134402  45.138579
460   2 0.0000 17.151442  7.134402  63.649296
461   2 0.0000 17.151442  7.134402  82.160013
462   2 0.0000 17.151442  7.134402 100.670731
463   2 0.0000 17.151442 17.715182   8.117144
464   2 0.0000 17.151442 17.715182  26.627861
465   2 0.0000 17.151442 17.715182  45.138579
466   2 0.0000 17.151442 17.715182  63.649296
467   2 0.0000 17.151442 17.715182  82.160013
468   2 0.0000 17.151442 17.715182 100.670731
469   2 0.0000 17.151442 28.295963   8.117144
470   2 0.0000 17.151442 28.295963  26.627861
471   2 0.0000 17.151442 28.295963  45.138579
472   2 0.0000 17.151442 28.295963  63.649296
473   2 0.0000 17.151442 28.295963  82.160013
474   2 0.0000 17.151442 28.295963 100.670731
475   2 0.0000 17.151442 38.876743   8.117144
476   2 0.0000 17.151442 38.876743  26.627861
477   2 0.0000 17.151442 38.876743  45.138579
478   2 0.0000 17.151442 38.876743  63.649296
479   2 0.0000 17.151442 38.876743  82.160013
480   2 0.0000 17.151442 38.876743 100.670731
481   2 0.0000  3.958025  3.446379  10.393573
482   2 0.0000  3.958025  3.446379  28.904291
483   2 0.0000  3.958025  3.446379  47.415008
484   2 0.0000  3.958025  3.446379  65.925725
485   2 0.0000  3.958025  3.446379  84.436443
486   2 0.0000  3.958025  3.446379 102.947160
487   2 0.0000  3.958025 14.027159  10.393573
488   2 0.0000  3.958025 14.027159  28.904291
489   2 0.0000  3.958025 14.027159  47.415008
490   2 0.0000  3.958025 14.027159  65.925725
491   2 0.0000  3.958025 14.027159  84.436443
492   2 0.0000  3.958025 14.027159 102.947160
493   2 0.0000  3.958025 24.607940  10.393573
494   2 0.0000  3.958025 24.607940  28.904291
495   2 0.0000  3.958025 24.607940  47.415008
496   2 0.0000  3.958025 24.607940  65.925725
497   2 0.0000  3.958025 24.607940  84.436443
498   2 0.0000  3.958025 24.607940 102.947160
499   2 0.0000  3.958025 35.188720  10.393573
500   2 0.0000  3.958025 35.188720  28.904291
501   2 0.0000  3.958025 35.188720  47.415008
502   2 0.0000  3.958025 35.188720  65.925725
503   2 0.0000  3.958025 35.188720  84.436443
504   2 0.0000  3.958025 35.188720 102.947160
505   2 0.0000  9.235392  3.446379  10.393573
506   2 0.0000  9.235392  3.446379  28.904291
507   2 0.0000  9.235392  3.446379  47.415008
508   2 0.0000  9.235392  3.446379  65.925725
509   2 0.0000  9.235392  3.446379  84.436443
510   2 0.0000  9.235392  3.446379 102.947160
511   2 0.0000  9.235392 14.027159  10.393573
512   2 0.0000  9.235392 14.027159  28.904291
513   2 0.0000  9.235392 14.027159  47.415008
514   2 0.0000  9.235392 14.027159  65.925725
515   2 0.0000  9.235392 14.027159  84.436443
516   2 0.0000  9.235392 14.027159 102.947160
517   2 0.0000  9.235392 24.607940  10.393573
518   2 0.0000  9.235392 24.607940  28.904291
519   2 0.0000  9.235392 24.607940  47.415008
520   2 0.0000  9.235392 24.607940  65.925725
521   2 0.0000  9.235392 24.607940  84.436443
522   2 0.0000  9.235392 24.607940 102.947160
523   2 0.0000  9.235392 35.188720  10.393573
524   2 0.0000  9.235392 35.188720  28.904291
525   2 0.0000  9.235392 35.188720  47.415008
526   2 0.0000  9.235392 35.188720  65.925725
527   2 0.0000  9.235392 35.188720  84.436443
528   2 0.0000  9.235392 35.188720 102.947160
529   2 0.0000 14.512759  3.446379  10.393573
530   2 0.0000 14.512759  3.446379  28.904291
531   2 0.0000 14.512759  3.446379  47.415008
532   2 0.0000 14.512759  3.446379  65.925725
533   2 0.0000 14.512759  3.446379  84.436443
534   2 0.0000 14.512759  3.446379 102.947160
535   2 0.0000 14.512759 14.027159  10.393573
536   2 0.0000 14.512759 14.027159  28.904291
537   2 0.0000 14.512759 14.027159  47.415008
538   2 0.0000 14.512759 14.027159  65.925725
539   2 0.0000 14.512759 14.027159  84.436443
540   2 0.0000 14.512759 14.027159 102.947160
541   2 0.0000 14.512759 24.607940  10.393573
542   2 0.0000 14.512759 24.607940  28.904291
543   2 0.0000 14.512759 24.607940  47.415008
544   2 0.0000 14.512759 24.607940  65.925725
545   2 0.0000 14.512759 24.607940  84.436443
546   2 0.0000 14.512759 24.607940 102.947160
547   2 0.0000 14.512759 35.188720  10.393573
548   2 0.0000 14.512759 35.188720  28.904291
549   2 0.0000 14.512759 35.188720  47.415008
550   2 0.0000 14.512759 35.188720  65.925725
551   2 0.0000 14.512759 35.188720  84.436443
552   2 0.0000 14.512759 35.188720 102.947160
553   2 0.0000 19.790125  3.446379  10.393573
554   2 0.0000 19.790125  3.446379  28.904291
555   2 0.0000 19.790125  3.446379  47.415008
556   2 0.0000 19.790125  3.446379  65.925725
557   2 0.0000 19.790125  3.446379  84.436443
558   2 0.0000 19.790125  3.446379 102.947160
559   2 0.0000 19.790125 14.027159  10.393573
560   2 0.0000 19.790125 14.027159  28.904291
561   2 0.0000 19.790125 14.027159  47.415008
562   2 0.0000 19.790125 14.027159  65.925725
563   2 0.0000 19.790125 14.027159  84.436443
564   2 0.0000 19.790125 14.027159 102.947160
565   2 0.0000 19.790125 24.607940  10.393573
566   2 0.0000 19.790125 24.607940  28.904291
567   2 0.0000 19.790125 24.607940  47.415008
568   2 0.0000 19.790125 24.607940  65.925725
569   2 0.0000 19.790125 24.607940  84.436443
570   2 0.0000 19.790125 24.607940 102.947160
571   2 0.0000 19.790125 35.188720  10.393573
572   2 0.0000 19.790125 35.188720  28.904291
573   2 0.0000 19.790125 35.188720  47.415008
574   2 0.0000 19.790125 35.188720  65.925725
575   2 0.0000 19.790125 35.188720  84.436443
576   2 0.0000 19.790125 35.188720 102.947160
577   2 0.0000  1.319342  1.844012   1.138215
578   2 0.0000  1.319342  1.844012  19.648932
579   2 0.0000  1.319342  1.844012  38.159649
580   2 0.0000  1.319342  1.844012  56.670367
581   2 0.0000  1.319342  1.844012  75.181084
582   2 0.0000  1.319342  1.844012  93.691801
583   2 0.0000  1.319342 12.424792   1.138215
584   2 0.0000  1.319342 12.424792  19.648932
585   2 0.0000  1.319342 12.424792  38.159649
586   2 0.0000  1.319342 12.424792  56.670367
587   2 0.0000  1.319342 12.424792  75.181084
588   2 0.0000  1.319342 12.424792  93.691801
589   2 0.0000  1.319342 23.005573   1.138215
590   2 0.0000  1.319342 23.005573  19.648932
591   2 0.0000  1.319342 23.005573  38.159649
592   2 0.0000  1.319342 23.005573  56.670367
593   2 0.0000  1.319342 23.005573  75.181084
594   2 0.0000  1.319342 23.005573  93.691801
595   2 0.0000  1.319342 33.586353   1.138215
596   2 0.0000  1.319342 33.586353  19.648932
597   2 0.0000  1.319342 33.586353  38.159649
598   2 0.0000  1.319342 33.586353  56.670367
599   2 0.0000  1.319342 33.586353  75.181084
600   2 0.0000  1.319342 33.586353  93.691801
601   2 0.0000  6.596708  1.844012   1.138215
602   2 0.0000  6.596708  1.844012  19.648932
603   2 0.0000  6.596708  1.844012  38.159649
604   2 0.0000  6.596708  1.844012  56.670367
605   2 0.0000  6.596708  1.844012  75.181084
606   2 0.0000  6.596708  1.844012  93.691801
607   2 0.0000  6.596708 12.424792   1.138215
608   2 0.0000  6.596708 12.424792  19.648932
609   2 0.0000  6.596708 12.424792  38.159649
610   2 0.0000  6.596708 12.424792  56.670367
611   2 0.0000  6.596708 12.424792  75.181084
612   2 0.0000  6.596708 12.424792  93.691801
613   2 0.0000  6.596708 23.005573   1.138215
614   2 0.0000  6.596708 23.005573  19.648932
615   2 0.0000  6.596708 23.005573  38.159649
616   2 0.0000  6.596708 23.005573  56.670367
617   2 0.0000  6.596708 23.005573  75.181084
618   2 0.0000  6.596708 23.005573  93.691801
619   2 0.0000  6.596708 33.586353   1.138215
620   2 0.0000  6.596708 33.586353  19.648932
621   2 0.0000  6.596708 33.586353  38.159649
622   2 0.0000  6.596708 33.586353  56.670367
623   2 0.0000  6.596708 33.586353  75.181084
624   2 0.0000  6.596708 33.586353  93.691801
625   2 0.0000 11.874075  1.844012   1.138215
626   2 0.0000 11.874075  1.844012  19.648932
627   2 0.0000 11.874075  1.844012  38.159649
628   2 0.0000 11.874075  1.844012  56.670367
629   2 0.0000 11.874075  1.844012  75.181084
630   2 0.0000 11.874075  1.844012  93.691801
631   2 0.0000 11.874075 12.424792   1.138215
632   2 0.0000 11.874075 12.424792  19.648932
633   2 0.0000 11.874075 12.424792  38.159649
634   2 0.0000 11.874075 12.424792  56.670367
635   2 0.0000 11.874075 12.424792  75.181084
636   2 0.0000 11.874075 12.424792  93.691801
637   2 0.0000 11.874075 23.005573   1.138215
638   2 0.0000 11.874075 23.005573  19.648932
639   2 0.0000 11.874075 23.005573  38.159649
640   2 0.0000 11.874075 23.005573  56.670367
641   2 0.0000 11.874075 23.005573  75.181084
642   2 0.0000 11.874075 23.005573  93.691801
643   2 0.0000 11.874075 33.586353   1.138215
644   2 0.0000 11.874075 33.586353  19.648932
645   2 0.0000 11.874075 33.586353  38.159649
646   2 0.0000 11.874075 33.586353  56.670367
647   2 0.0000 11.874075 33.586353  75.181084