Generated by pymatgen.io.lammps.data.LammpsData

3648  atoms

   2  atom types

0.000000 12.307125  xlo xhi
0.000000 10.658266  ylo yhi
0.000000 286.843381  zlo zhi
6.153592 9.230233 5.329060  xy xz yz

Masses

1  28.0855
2  12.0107

Atoms

1     1 0.0000  1.538423  0.888206  47.807224
2     1 0.0000  3.076795  1.776383  95.614455
3     1 0.0000  4.615167  2.664559 143.421685
4     1 0.0000  6.153539  3.552736 191.228915
5     1 0.0000  7.691912  4.440913 239.036145
6     1 0.0000  9.230284  5.329090 286.843376
7     1 0.0000  3.076821  3.552772  47.807224
8     1 0.0000  4.615193  4.440949  95.614455
9     1 0.0000  6.153565  5.329126 143.421685
10    1 0.0000  7.691937  6.217303 191.228915
11    1 0.0000  9.230310  7.105479 239.036145
12    1 0.0000 10.768682  7.993656 286.843376
13    1 0.0000  4.615219  6.217339  47.807224
14    1 0.0000  6.153591  7.105516  95.614455
15    1 0.0000  7.691963  7.993692 143.421685
16    1 0.0000  9.230335  8.881869 191.228915
17    1 0.0000 10.768708  9.770046 239.036145
18    1 0.0000 12.307080 10.658222 286.843376
19    1 0.0000  6.153617  8.881905  47.807224
20    1 0.0000  7.691989  9.770082  95.614455
21    1 0.0000  9.230361 10.658259 143.421685
22    1 0.0000 10.768734 11.546435 191.228915
23    1 0.0000 12.307106 12.434612 239.036145
24    1 0.0000 13.845478 13.322789 286.843376
25    1 0.0000  4.615204  0.888206  47.807224
26    1 0.0000  6.153576  1.776383  95.614455
27    1 0.0000  7.691948  2.664559 143.421685
28    1 0.0000  9.230321  3.552736 191.228915
29    1 0.0000 10.768693  4.440913 239.036145
30    1 0.0000 12.307065  5.329090 286.843376
31    1 0.0000  6.153602  3.552772  47.807224
32    1 0.0000  7.691974  4.440949  95.614455
33    1 0.0000  9.230346  5.329126 143.421685
34    1 0.0000 10.768719  6.217303 191.228915
35    1 0.0000 12.307091  7.105479 239.036145
36    1 0.0000 13.845463  7.993656 286.843376
37    1 0.0000  7.692000  6.217339  47.807224
38    1 0.0000  9.230372  7.105516  95.614455
39    1 0.0000 10.768745  7.993692 143.421685
40    1 0.0000 12.307117  8.881869 191.228915
41    1 0.0000 13.845489  9.770046 239.036145
42    1 0.0000 15.383861 10.658222 286.843376
43    1 0.0000  9.230398  8.881905  47.807224
44    1 0.0000 10.768770  9.770082  95.614455
45    1 0.0000 12.307143 10.658259 143.421685
46    1 0.0000 13.845515 11.546435 191.228915
47    1 0.0000 15.383887 12.434612 239.036145
48    1 0.0000 16.922259 13.322789 286.843376
49    1 0.0000  7.691985  0.888206  47.807224
50    1 0.0000  9.230357  1.776383  95.614455
51    1 0.0000 10.768730  2.664559 143.421685
52    1 0.0000 12.307102  3.552736 191.228915
53    1 0.0000 13.845474  4.440913 239.036145
54    1 0.0000 15.383846  5.329090 286.843376
55    1 0.0000  9.230383  3.552772  47.807224
56    1 0.0000 10.768756  4.440949  95.614455
57    1 0.0000 12.307128  5.329126 143.421685
58    1 0.0000 13.845500  6.217303 191.228915
59    1 0.0000 15.383872  7.105479 239.036145
60    1 0.0000 16.922244  7.993656 286.843376
61    1 0.0000 10.768781  6.217339  47.807224
62    1 0.0000 12.307154  7.105516  95.614455
63    1 0.0000 13.845526  7.993692 143.421685
64    1 0.0000 15.383898  8.881869 191.228915
65    1 0.0000 16.922270  9.770046 239.036145
66    1 0.0000 18.460642 10.658222 286.843376
67    1 0.0000 12.307180  8.881905  47.807224
68    1 0.0000 13.845552  9.770082  95.614455
69    1 0.0000 15.383924 10.658259 143.421685
70    1 0.0000 16.922296 11.546435 191.228915
71    1 0.0000 18.460668 12.434612 239.036145
72    1 0.0000 19.999041 13.322789 286.843376
73    1 0.0000 10.768767  0.888206  47.807224
74    1 0.0000 12.307139  1.776383  95.614455
75    1 0.0000 13.845511  2.664559 143.421685
76    1 0.0000 15.383883  3.552736 191.228915
77    1 0.0000 16.922255  4.440913 239.036145
78    1 0.0000 18.460628  5.329090 286.843376
79    1 0.0000 12.307165  3.552772  47.807224
80    1 0.0000 13.845537  4.440949  95.614455
81    1 0.0000 15.383909  5.329126 143.421685
82    1 0.0000 16.922281  6.217303 191.228915
83    1 0.0000 18.460653  7.105479 239.036145
84    1 0.0000 19.999026  7.993656 286.843376
85    1 0.0000 13.845563  6.217339  47.807224
86    1 0.0000 15.383935  7.105516  95.614455
87    1 0.0000 16.922307  7.993692 143.421685
88    1 0.0000 18.460679  8.881869 191.228915
89    1 0.0000 19.999052  9.770046 239.036145
90    1 0.0000 21.537424 10.658222 286.843376
91    1 0.0000 15.383961  8.881905  47.807224
92    1 0.0000 16.922333  9.770082  95.614455
93    1 0.0000 18.460705 10.658259 143.421685
94    1 0.0000 19.999077 11.546435 191.228915
95    1 0.0000 21.537450 12.434612 239.036145
96    1 0.0000 23.075822 13.322789 286.843376
97    1 0.0000  4.615150  2.664549  10.064894
98    1 0.0000  6.153522  3.552726  57.872125
99    1 0.0000  7.691894  4.440903 105.679355
100   1 0.0000  9.230266  5.329080 153.486585
101   1 0.0000 10.768639  6.217256 201.293815
102   1 0.0000 12.307011  7.105433 249.101046
103   1 0.0000  6.153548  5.329116  10.064894
104   1 0.0000  7.691920  6.217293  57.872125
105   1 0.0000  9.230292  7.105469 105.679355
106   1 0.0000 10.768664  7.993646 153.486585
107   1 0.0000 12.307037  8.881823 201.293815
108   1 0.0000 13.845409  9.770000 249.101046
109   1 0.0000  7.691946  7.993682  10.064894
110   1 0.0000  9.230318  8.881859  57.872125
111   1 0.0000 10.768690  9.770036 105.679355
112   1 0.0000 12.307063 10.658212 153.486585
113   1 0.0000 13.845435 11.546389 201.293815
114   1 0.0000 15.383807 12.434566 249.101046
115   1 0.0000  9.230344 10.658249  10.064894
116   1 0.0000 10.768716 11.546425  57.872125
117   1 0.0000 12.307088 12.434602 105.679355
118   1 0.0000 13.845461 13.322779 153.486585
119   1 0.0000 15.383833 14.210956 201.293815
120   1 0.0000 16.922205 15.099132 249.101046
121   1 0.0000  7.691931  2.664549  10.064894
122   1 0.0000  9.230303  3.552726  57.872125
123   1 0.0000 10.768675  4.440903 105.679355
124   1 0.0000 12.307048  5.329080 153.486585
125   1 0.0000 13.845420  6.217256 201.293815
126   1 0.0000 15.383792  7.105433 249.101046
127   1 0.0000  9.230329  5.329116  10.064894
128   1 0.0000 10.768701  6.217293  57.872125
129   1 0.0000 12.307074  7.105469 105.679355
130   1 0.0000 13.845446  7.993646 153.486585
131   1 0.0000 15.383818  8.881823 201.293815
132   1 0.0000 16.922190  9.770000 249.101046
133   1 0.0000 10.768727  7.993682  10.064894
134   1 0.0000 12.307099  8.881859  57.872125
135   1 0.0000 13.845472  9.770036 105.679355
136   1 0.0000 15.383844 10.658212 153.486585
137   1 0.0000 16.922216 11.546389 201.293815
138   1 0.0000 18.460588 12.434566 249.101046
139   1 0.0000 12.307125 10.658249  10.064894
140   1 0.0000 13.845498 11.546425  57.872125
141   1 0.0000 15.383870 12.434602 105.679355
142   1 0.0000 16.922242 13.322779 153.486585
143   1 0.0000 18.460614 14.210956 201.293815
144   1 0.0000 19.998986 15.099132 249.101046
145   1 0.0000 10.768712  2.664549  10.064894
146   1 0.0000 12.307085  3.552726  57.872125
147   1 0.0000 13.845457  4.440903 105.679355
148   1 0.0000 15.383829  5.329080 153.486585
149   1 0.0000 16.922201  6.217256 201.293815
150   1 0.0000 18.460573  7.105433 249.101046
151   1 0.0000 12.307110  5.329116  10.064894
152   1 0.0000 13.845483  6.217293  57.872125
153   1 0.0000 15.383855  7.105469 105.679355
154   1 0.0000 16.922227  7.993646 153.486585
155   1 0.0000 18.460599  8.881823 201.293815
156   1 0.0000 19.998971  9.770000 249.101046
157   1 0.0000 13.845509  7.993682  10.064894
158   1 0.0000 15.383881  8.881859  57.872125
159   1 0.0000 16.922253  9.770036 105.679355
160   1 0.0000 18.460625 10.658212 153.486585
161   1 0.0000 19.998997 11.546389 201.293815
162   1 0.0000 21.537370 12.434566 249.101046
163   1 0.0000 15.383907 10.658249  10.064894
164   1 0.0000 16.922279 11.546425  57.872125
165   1 0.0000 18.460651 12.434602 105.679355
166   1 0.0000 19.999023 13.322779 153.486585
167   1 0.0000 21.537395 14.210956 201.293815
168   1 0.0000 23.075768 15.099132 249.101046
169   1 0.0000 13.845494  2.664549  10.064894
170   1 0.0000 15.383866  3.552726  57.872125
171   1 0.0000 16.922238  4.440903 105.679355
172   1 0.0000 18.460610  5.329080 153.486585
173   1 0.0000 19.998982  6.217256 201.293815
174   1 0.0000 21.537355  7.105433 249.101046
175   1 0.0000 15.383892  5.329116  10.064894
176   1 0.0000 16.922264  6.217293  57.872125
177   1 0.0000 18.460636  7.105469 105.679355
178   1 0.0000 19.999008  7.993646 153.486585
179   1 0.0000 21.537381  8.881823 201.293815
180   1 0.0000 23.075753  9.770000 249.101046
181   1 0.0000 16.922290  7.993682  10.064894
182   1 0.0000 18.460662  8.881859  57.872125
183   1 0.0000 19.999034  9.770036 105.679355
184   1 0.0000 21.537406 10.658212 153.486585
185   1 0.0000 23.075779 11.546389 201.293815
186   1 0.0000 24.614151 12.434566 249.101046
187   1 0.0000 18.460688 10.658249  10.064894
188   1 0.0000 19.999060 11.546425  57.872125
189   1 0.0000 21.537432 12.434602 105.679355
190   1 0.0000 23.075805 13.322779 153.486585
191   1 0.0000 24.614177 14.210956 201.293815
192   1 0.0000 26.152549 15.099132 249.101046
193   1 0.0000  4.615123  2.664534  15.097668
194   1 0.0000  6.153495  3.552710  62.904898
195   1 0.0000  7.691867  4.440887 110.712129
196   1 0.0000  9.230239  5.329064 158.519359
197   1 0.0000 10.768611  6.217241 206.326589
198   1 0.0000 12.306984  7.105417 254.133819
199   1 0.0000  6.153521  5.329100  15.097668
200   1 0.0000  7.691893  6.217277  62.904898
201   1 0.0000  9.230265  7.105454 110.712129
202   1 0.0000 10.768637  7.993630 158.519359
203   1 0.0000 12.307010  8.881807 206.326589
204   1 0.0000 13.845382  9.769984 254.133819
205   1 0.0000  7.691919  7.993667  15.097668
206   1 0.0000  9.230291  8.881843  62.904898
207   1 0.0000 10.768663  9.770020 110.712129
208   1 0.0000 12.307035 10.658197 158.519359
209   1 0.0000 13.845408 11.546374 206.326589
210   1 0.0000 15.383780 12.434550 254.133819
211   1 0.0000  9.230317 10.658233  15.097668
212   1 0.0000 10.768689 11.546410  62.904898
213   1 0.0000 12.307061 12.434587 110.712129
214   1 0.0000 13.845433 13.322763 158.519359
215   1 0.0000 15.383806 14.210940 206.326589
216   1 0.0000 16.922178 15.099117 254.133819
217   1 0.0000  7.691904  2.664534  15.097668
218   1 0.0000  9.230276  3.552710  62.904898
219   1 0.0000 10.768648  4.440887 110.712129
220   1 0.0000 12.307020  5.329064 158.519359
221   1 0.0000 13.845393  6.217241 206.326589
222   1 0.0000 15.383765  7.105417 254.133819
223   1 0.0000  9.230302  5.329100  15.097668
224   1 0.0000 10.768674  6.217277  62.904898
225   1 0.0000 12.307046  7.105454 110.712129
226   1 0.0000 13.845419  7.993630 158.519359
227   1 0.0000 15.383791  8.881807 206.326589
228   1 0.0000 16.922163  9.769984 254.133819
229   1 0.0000 10.768700  7.993667  15.097668
230   1 0.0000 12.307072  8.881843  62.904898
231   1 0.0000 13.845444  9.770020 110.712129
232   1 0.0000 15.383817 10.658197 158.519359
233   1 0.0000 16.922189 11.546374 206.326589
234   1 0.0000 18.460561 12.434550 254.133819
235   1 0.0000 12.307098 10.658233  15.097668
236   1 0.0000 13.845470 11.546410  62.904898
237   1 0.0000 15.383843 12.434587 110.712129
238   1 0.0000 16.922215 13.322763 158.519359
239   1 0.0000 18.460587 14.210940 206.326589
240   1 0.0000 19.998959 15.099117 254.133819
241   1 0.0000 10.768685  2.664534  15.097668
242   1 0.0000 12.307057  3.552710  62.904898
243   1 0.0000 13.845430  4.440887 110.712129
244   1 0.0000 15.383802  5.329064 158.519359
245   1 0.0000 16.922174  6.217241 206.326589
246   1 0.0000 18.460546  7.105417 254.133819
247   1 0.0000 12.307083  5.329100  15.097668
248   1 0.0000 13.845455  6.217277  62.904898
249   1 0.0000 15.383828  7.105454 110.712129
250   1 0.0000 16.922200  7.993630 158.519359
251   1 0.0000 18.460572  8.881807 206.326589
252   1 0.0000 19.998944  9.769984 254.133819
253   1 0.0000 13.845481  7.993667  15.097668
254   1 0.0000 15.383854  8.881843  62.904898
255   1 0.0000 16.922226  9.770020 110.712129
256   1 0.0000 18.460598 10.658197 158.519359
257   1 0.0000 19.998970 11.546374 206.326589
258   1 0.0000 21.537342 12.434550 254.133819
259   1 0.0000 15.383879 10.658233  15.097668
260   1 0.0000 16.922252 11.546410  62.904898
261   1 0.0000 18.460624 12.434587 110.712129
262   1 0.0000 19.998996 13.322763 158.519359
263   1 0.0000 21.537368 14.210940 206.326589
264   1 0.0000 23.075740 15.099117 254.133819
265   1 0.0000 13.845466  2.664534  15.097668
266   1 0.0000 15.383839  3.552710  62.904898
267   1 0.0000 16.922211  4.440887 110.712129
268   1 0.0000 18.460583  5.329064 158.519359
269   1 0.0000 19.998955  6.217241 206.326589
270   1 0.0000 21.537327  7.105417 254.133819
271   1 0.0000 15.383865  5.329100  15.097668
272   1 0.0000 16.922237  6.217277  62.904898
273   1 0.0000 18.460609  7.105454 110.712129
274   1 0.0000 19.998981  7.993630 158.519359
275   1 0.0000 21.537353  8.881807 206.326589
276   1 0.0000 23.075726  9.769984 254.133819
277   1 0.0000 16.922263  7.993667  15.097668
278   1 0.0000 18.460635  8.881843  62.904898
279   1 0.0000 19.999007  9.770020 110.712129
280   1 0.0000 21.537379 10.658197 158.519359
281   1 0.0000 23.075751 11.546374 206.326589
282   1 0.0000 24.614124 12.434550 254.133819
283   1 0.0000 18.460661 10.658233  15.097668
284   1 0.0000 19.999033 11.546410  62.904898
285   1 0.0000 21.537405 12.434587 110.712129
286   1 0.0000 23.075777 13.322763 158.519359
287   1 0.0000 24.614150 14.210940 206.326589
288   1 0.0000 26.152522 15.099117 254.133819
289   1 0.0000  4.615152  2.664551  25.158695
290   1 0.0000  6.153525  3.552728  72.965926
291   1 0.0000  7.691897  4.440904 120.773156
292   1 0.0000  9.230269  5.329081 168.580386
293   1 0.0000 10.768641  6.217258 216.387616
294   1 0.0000 12.307014  7.105435 264.194847
295   1 0.0000  6.153551  5.329117  25.158695
296   1 0.0000  7.691923  6.217294  72.965926
297   1 0.0000  9.230295  7.105471 120.773156
298   1 0.0000 10.768667  7.993648 168.580386
299   1 0.0000 12.307039  8.881824 216.387616
300   1 0.0000 13.845412  9.770001 264.194847
301   1 0.0000  7.691949  7.993684  25.158695
302   1 0.0000  9.230321  8.881861  72.965926
303   1 0.0000 10.768693  9.770037 120.773156
304   1 0.0000 12.307065 10.658214 168.580386
305   1 0.0000 13.845437 11.546391 216.387616
306   1 0.0000 15.383810 12.434568 264.194847
307   1 0.0000  9.230347 10.658250  25.158695
308   1 0.0000 10.768719 11.546427  72.965926
309   1 0.0000 12.307091 12.434604 120.773156
310   1 0.0000 13.845463 13.322781 168.580386
311   1 0.0000 15.383836 14.210957 216.387616
312   1 0.0000 16.922208 15.099134 264.194847
313   1 0.0000  7.691934  2.664551  25.158695
314   1 0.0000  9.230306  3.552728  72.965926
315   1 0.0000 10.768678  4.440904 120.773156
316   1 0.0000 12.307050  5.329081 168.580386
317   1 0.0000 13.845423  6.217258 216.387616
318   1 0.0000 15.383795  7.105435 264.194847
319   1 0.0000  9.230332  5.329117  25.158695
320   1 0.0000 10.768704  6.217294  72.965926
321   1 0.0000 12.307076  7.105471 120.773156
322   1 0.0000 13.845448  7.993648 168.580386
323   1 0.0000 15.383821  8.881824 216.387616
324   1 0.0000 16.922193  9.770001 264.194847
325   1 0.0000 10.768730  7.993684  25.158695
326   1 0.0000 12.307102  8.881861  72.965926
327   1 0.0000 13.845474  9.770037 120.773156
328   1 0.0000 15.383847 10.658214 168.580386
329   1 0.0000 16.922219 11.546391 216.387616
330   1 0.0000 18.460591 12.434568 264.194847
331   1 0.0000 12.307128 10.658250  25.158695
332   1 0.0000 13.845500 11.546427  72.965926
333   1 0.0000 15.383872 12.434604 120.773156
334   1 0.0000 16.922245 13.322781 168.580386
335   1 0.0000 18.460617 14.210957 216.387616
336   1 0.0000 19.998989 15.099134 264.194847
337   1 0.0000 10.768715  2.664551  25.158695
338   1 0.0000 12.307087  3.552728  72.965926
339   1 0.0000 13.845459  4.440904 120.773156
340   1 0.0000 15.383832  5.329081 168.580386
341   1 0.0000 16.922204  6.217258 216.387616
342   1 0.0000 18.460576  7.105435 264.194847
343   1 0.0000 12.307113  5.329117  25.158695
344   1 0.0000 13.845485  6.217294  72.965926
345   1 0.0000 15.383858  7.105471 120.773156
346   1 0.0000 16.922230  7.993648 168.580386
347   1 0.0000 18.460602  8.881824 216.387616
348   1 0.0000 19.998974  9.770001 264.194847
349   1 0.0000 13.845511  7.993684  25.158695
350   1 0.0000 15.383883  8.881861  72.965926
351   1 0.0000 16.922256  9.770037 120.773156
352   1 0.0000 18.460628 10.658214 168.580386
353   1 0.0000 19.999000 11.546391 216.387616
354   1 0.0000 21.537372 12.434568 264.194847
355   1 0.0000 15.383909 10.658250  25.158695
356   1 0.0000 16.922282 11.546427  72.965926
357   1 0.0000 18.460654 12.434604 120.773156
358   1 0.0000 19.999026 13.322781 168.580386
359   1 0.0000 21.537398 14.210957 216.387616
360   1 0.0000 23.075770 15.099134 264.194847
361   1 0.0000 13.845496  2.664551  25.158695
362   1 0.0000 15.383869  3.552728  72.965926
363   1 0.0000 16.922241  4.440904 120.773156
364   1 0.0000 18.460613  5.329081 168.580386
365   1 0.0000 19.998985  6.217258 216.387616
366   1 0.0000 21.537357  7.105435 264.194847
367   1 0.0000 15.383894  5.329117  25.158695
368   1 0.0000 16.922267  6.217294  72.965926
369   1 0.0000 18.460639  7.105471 120.773156
370   1 0.0000 19.999011  7.993648 168.580386
371   1 0.0000 21.537383  8.881824 216.387616
372   1 0.0000 23.075755  9.770001 264.194847
373   1 0.0000 16.922293  7.993684  25.158695
374   1 0.0000 18.460665  8.881861  72.965926
375   1 0.0000 19.999037  9.770037 120.773156
376   1 0.0000 21.537409 10.658214 168.580386
377   1 0.0000 23.075781 11.546391 216.387616
378   1 0.0000 24.614154 12.434568 264.194847
379   1 0.0000 18.460691 10.658250  25.158695
380   1 0.0000 19.999063 11.546427  72.965926
381   1 0.0000 21.537435 12.434604 120.773156
382   1 0.0000 23.075807 13.322781 168.580386
383   1 0.0000 24.614179 14.210957 216.387616
384   1 0.0000 26.152552 15.099134 264.194847
385   1 0.0000  4.615079  2.664509  30.192642
386   1 0.0000  6.153452  3.552685  77.999872
387   1 0.0000  7.691824  4.440862 125.807102
388   1 0.0000  9.230196  5.329039 173.614333
389   1 0.0000 10.768568  6.217216 221.421563
390   1 0.0000 12.306940  7.105392 269.228793
391   1 0.0000  6.153477  5.329075  30.192642
392   1 0.0000  7.691850  6.217252  77.999872
393   1 0.0000  9.230222  7.105429 125.807102
394   1 0.0000 10.768594  7.993605 173.614333
395   1 0.0000 12.306966  8.881782 221.421563
396   1 0.0000 13.845338  9.769959 269.228793
397   1 0.0000  7.691876  7.993642  30.192642
398   1 0.0000  9.230248  8.881818  77.999872
399   1 0.0000 10.768620  9.769995 125.807102
400   1 0.0000 12.306992 10.658172 173.614333
401   1 0.0000 13.845364 11.546349 221.421563
402   1 0.0000 15.383737 12.434525 269.228793
403   1 0.0000  9.230274 10.658208  30.192642
404   1 0.0000 10.768646 11.546385  77.999872
405   1 0.0000 12.307018 12.434562 125.807102
406   1 0.0000 13.845390 13.322738 173.614333
407   1 0.0000 15.383762 14.210915 221.421563
408   1 0.0000 16.922135 15.099092 269.228793
409   1 0.0000  7.691861  2.664509  30.192642
410   1 0.0000  9.230233  3.552685  77.999872
411   1 0.0000 10.768605  4.440862 125.807102
412   1 0.0000 12.306977  5.329039 173.614333
413   1 0.0000 13.845349  6.217216 221.421563
414   1 0.0000 15.383722  7.105392 269.228793
415   1 0.0000  9.230259  5.329075  30.192642
416   1 0.0000 10.768631  6.217252  77.999872
417   1 0.0000 12.307003  7.105429 125.807102
418   1 0.0000 13.845375  7.993605 173.614333
419   1 0.0000 15.383748  8.881782 221.421563
420   1 0.0000 16.922120  9.769959 269.228793
421   1 0.0000 10.768657  7.993642  30.192642
422   1 0.0000 12.307029  8.881818  77.999872
423   1 0.0000 13.845401  9.769995 125.807102
424   1 0.0000 15.383773 10.658172 173.614333
425   1 0.0000 16.922146 11.546349 221.421563
426   1 0.0000 18.460518 12.434525 269.228793
427   1 0.0000 12.307055 10.658208  30.192642
428   1 0.0000 13.845427 11.546385  77.999872
429   1 0.0000 15.383799 12.434562 125.807102
430   1 0.0000 16.922172 13.322738 173.614333
431   1 0.0000 18.460544 14.210915 221.421563
432   1 0.0000 19.998916 15.099092 269.228793
433   1 0.0000 10.768642  2.664509  30.192642
434   1 0.0000 12.307014  3.552685  77.999872
435   1 0.0000 13.845386  4.440862 125.807102
436   1 0.0000 15.383759  5.329039 173.614333
437   1 0.0000 16.922131  6.217216 221.421563
438   1 0.0000 18.460503  7.105392 269.228793
439   1 0.0000 12.307040  5.329075  30.192642
440   1 0.0000 13.845412  6.217252  77.999872
441   1 0.0000 15.383784  7.105429 125.807102
442   1 0.0000 16.922157  7.993605 173.614333
443   1 0.0000 18.460529  8.881782 221.421563
444   1 0.0000 19.998901  9.769959 269.228793
445   1 0.0000 13.845438  7.993642  30.192642
446   1 0.0000 15.383810  8.881818  77.999872
447   1 0.0000 16.922183  9.769995 125.807102
448   1 0.0000 18.460555 10.658172 173.614333
449   1 0.0000 19.998927 11.546349 221.421563
450   1 0.0000 21.537299 12.434525 269.228793
451   1 0.0000 15.383836 10.658208  30.192642
452   1 0.0000 16.922208 11.546385  77.999872
453   1 0.0000 18.460581 12.434562 125.807102
454   1 0.0000 19.998953 13.322738 173.614333
455   1 0.0000 21.537325 14.210915 221.421563
456   1 0.0000 23.075697 15.099092 269.228793
457   1 0.0000 13.845423  2.664509  30.192642
458   1 0.0000 15.383795  3.552685  77.999872
459   1 0.0000 16.922168  4.440862 125.807102
460   1 0.0000 18.460540  5.329039 173.614333
461   1 0.0000 19.998912  6.217216 221.421563
462   1 0.0000 21.537284  7.105392 269.228793
463   1 0.0000 15.383821  5.329075  30.192642
464   1 0.0000 16.922194  6.217252  77.999872
465   1 0.0000 18.460566  7.105429 125.807102
466   1 0.0000 19.998938  7.993605 173.614333
467   1 0.0000 21.537310  8.881782 221.421563
468   1 0.0000 23.075682  9.769959 269.228793
469   1 0.0000 16.922219  7.993642  30.192642
470   1 0.0000 18.460592  8.881818  77.999872
471   1 0.0000 19.998964  9.769995 125.807102
472   1 0.0000 21.537336 10.658172 173.614333
473   1 0.0000 23.075708 11.546349 221.421563
474   1 0.0000 24.614080 12.434525 269.228793
475   1 0.0000 18.460617 10.658208  30.192642
476   1 0.0000 19.998990 11.546385  77.999872
477   1 0.0000 21.537362 12.434562 125.807102
478   1 0.0000 23.075734 13.322738 173.614333
479   1 0.0000 24.614106 14.210915 221.421563
480   1 0.0000 26.152479 15.099092 269.228793
481   1 0.0000  4.615105  2.664523  40.255431
482   1 0.0000  6.153477  3.552700  88.062661
483   1 0.0000  7.691849  4.440877 135.869891
484   1 0.0000  9.230221  5.329054 183.677122
485   1 0.0000 10.768594  6.217230 231.484352
486   1 0.0000 12.306966  7.105407 279.291582
487   1 0.0000  6.153503  5.329090  40.255431
488   1 0.0000  7.691875  6.217267  88.062661
489   1 0.0000  9.230247  7.105443 135.869891
490   1 0.0000 10.768620  7.993620 183.677122
491   1 0.0000 12.306992  8.881797 231.484352
492   1 0.0000 13.845364  9.769974 279.291582
493   1 0.0000  7.691901  7.993656  40.255431
494   1 0.0000  9.230273  8.881833  88.062661
495   1 0.0000 10.768645  9.770010 135.869891
496   1 0.0000 12.307018 10.658187 183.677122
497   1 0.0000 13.845390 11.546363 231.484352
498   1 0.0000 15.383762 12.434540 279.291582
499   1 0.0000  9.230299 10.658223  40.255431
500   1 0.0000 10.768671 11.546400  88.062661
501   1 0.0000 12.307044 12.434576 135.869891
502   1 0.0000 13.845416 13.322753 183.677122
503   1 0.0000 15.383788 14.210930 231.484352
504   1 0.0000 16.922160 15.099106 279.291582
505   1 0.0000  7.691886  2.664523  40.255431
506   1 0.0000  9.230258  3.552700  88.062661
507   1 0.0000 10.768631  4.440877 135.869891
508   1 0.0000 12.307003  5.329054 183.677122
509   1 0.0000 13.845375  6.217230 231.484352
510   1 0.0000 15.383747  7.105407 279.291582
511   1 0.0000  9.230284  5.329090  40.255431
512   1 0.0000 10.768656  6.217267  88.062661
513   1 0.0000 12.307029  7.105443 135.869891
514   1 0.0000 13.845401  7.993620 183.677122
515   1 0.0000 15.383773  8.881797 231.484352
516   1 0.0000 16.922145  9.769974 279.291582
517   1 0.0000 10.768682  7.993656  40.255431
518   1 0.0000 12.307055  8.881833  88.062661
519   1 0.0000 13.845427  9.770010 135.869891
520   1 0.0000 15.383799 10.658187 183.677122
521   1 0.0000 16.922171 11.546363 231.484352
522   1 0.0000 18.460543 12.434540 279.291582
523   1 0.0000 12.307080 10.658223  40.255431
524   1 0.0000 13.845453 11.546400  88.062661
525   1 0.0000 15.383825 12.434576 135.869891
526   1 0.0000 16.922197 13.322753 183.677122
527   1 0.0000 18.460569 14.210930 231.484352
528   1 0.0000 19.998941 15.099106 279.291582
529   1 0.0000 10.768667  2.664523  40.255431
530   1 0.0000 12.307040  3.552700  88.062661
531   1 0.0000 13.845412  4.440877 135.869891
532   1 0.0000 15.383784  5.329054 183.677122
533   1 0.0000 16.922156  6.217230 231.484352
534   1 0.0000 18.460528  7.105407 279.291582
535   1 0.0000 12.307066  5.329090  40.255431
536   1 0.0000 13.845438  6.217267  88.062661
537   1 0.0000 15.383810  7.105443 135.869891
538   1 0.0000 16.922182  7.993620 183.677122
539   1 0.0000 18.460554  8.881797 231.484352
540   1 0.0000 19.998927  9.769974 279.291582
541   1 0.0000 13.845464  7.993656  40.255431
542   1 0.0000 15.383836  8.881833  88.062661
543   1 0.0000 16.922208  9.770010 135.869891
544   1 0.0000 18.460580 10.658187 183.677122
545   1 0.0000 19.998952 11.546363 231.484352
546   1 0.0000 21.537325 12.434540 279.291582
547   1 0.0000 15.383862 10.658223  40.255431
548   1 0.0000 16.922234 11.546400  88.062661
549   1 0.0000 18.460606 12.434576 135.869891
550   1 0.0000 19.998978 13.322753 183.677122
551   1 0.0000 21.537351 14.210930 231.484352
552   1 0.0000 23.075723 15.099106 279.291582
553   1 0.0000 13.845449  2.664523  40.255431
554   1 0.0000 15.383821  3.552700  88.062661
555   1 0.0000 16.922193  4.440877 135.869891
556   1 0.0000 18.460565  5.329054 183.677122
557   1 0.0000 19.998938  6.217230 231.484352
558   1 0.0000 21.537310  7.105407 279.291582
559   1 0.0000 15.383847  5.329090  40.255431
560   1 0.0000 16.922219  6.217267  88.062661
561   1 0.0000 18.460591  7.105443 135.869891
562   1 0.0000 19.998963  7.993620 183.677122
563   1 0.0000 21.537336  8.881797 231.484352
564   1 0.0000 23.075708  9.769974 279.291582
565   1 0.0000 16.922245  7.993656  40.255431
566   1 0.0000 18.460617  8.881833  88.062661
567   1 0.0000 19.998989  9.770010 135.869891
568   1 0.0000 21.537362 10.658187 183.677122
569   1 0.0000 23.075734 11.546363 231.484352
570   1 0.0000 24.614106 12.434540 279.291582
571   1 0.0000 18.460643 10.658223  40.255431
572   1 0.0000 19.999015 11.546400  88.062661
573   1 0.0000 21.537387 12.434576 135.869891
574   1 0.0000 23.075760 13.322753 183.677122
575   1 0.0000 24.614132 14.210930 231.484352
576   1 0.0000 26.152504 15.099106 279.291582
577   1 0.0000  4.615129  2.664537  45.292993
578   1 0.0000  6.153501  3.552714  93.100223
579   1 0.0000  7.691873  4.440891 140.907453
580   1 0.0000  9.230245  5.329067 188.714684
581   1 0.0000 10.768617  6.217244 236.521914
582   1 0.0000 12.306990  7.105421 284.329144
583   1 0.0000  6.153527  5.329104  45.292993
584   1 0.0000  7.691899  6.217280  93.100223
585   1 0.0000  9.230271  7.105457 140.907453
586   1 0.0000 10.768643  7.993634 188.714684
587   1 0.0000 12.307015  8.881811 236.521914
588   1 0.0000 13.845388  9.769987 284.329144
589   1 0.0000  7.691925  7.993670  45.292993
590   1 0.0000  9.230297  8.881847  93.100223
591   1 0.0000 10.768669  9.770023 140.907453
592   1 0.0000 12.307041 10.658200 188.714684
593   1 0.0000 13.845414 11.546377 236.521914
594   1 0.0000 15.383786 12.434554 284.329144
595   1 0.0000  9.230323 10.658236  45.292993
596   1 0.0000 10.768695 11.546413  93.100223
597   1 0.0000 12.307067 12.434590 140.907453
598   1 0.0000 13.845439 13.322767 188.714684
599   1 0.0000 15.383812 14.210943 236.521914
600   1 0.0000 16.922184 15.099120 284.329144
601   1 0.0000  7.691910  2.664537  45.292993
602   1 0.0000  9.230282  3.552714  93.100223
603   1 0.0000 10.768654  4.440891 140.907453
604   1 0.0000 12.307026  5.329067 188.714684
605   1 0.0000 13.845399  6.217244 236.521914
606   1 0.0000 15.383771  7.105421 284.329144
607   1 0.0000  9.230308  5.329104  45.292993
608   1 0.0000 10.768680  6.217280  93.100223
609   1 0.0000 12.307052  7.105457 140.907453
610   1 0.0000 13.845425  7.993634 188.714684
611   1 0.0000 15.383797  8.881811 236.521914
612   1 0.0000 16.922169  9.769987 284.329144
613   1 0.0000 10.768706  7.993670  45.292993
614   1 0.0000 12.307078  8.881847  93.100223
615   1 0.0000 13.845450  9.770023 140.907453
616   1 0.0000 15.383823 10.658200 188.714684
617   1 0.0000 16.922195 11.546377 236.521914
618   1 0.0000 18.460567 12.434554 284.329144
619   1 0.0000 12.307104 10.658236  45.292993
620   1 0.0000 13.845476 11.546413  93.100223
621   1 0.0000 15.383849 12.434590 140.907453
622   1 0.0000 16.922221 13.322767 188.714684
623   1 0.0000 18.460593 14.210943 236.521914
624   1 0.0000 19.998965 15.099120 284.329144
625   1 0.0000 10.768691  2.664537  45.292993
626   1 0.0000 12.307063  3.552714  93.100223
627   1 0.0000 13.845436  4.440891 140.907453
628   1 0.0000 15.383808  5.329067 188.714684
629   1 0.0000 16.922180  6.217244 236.521914
630   1 0.0000 18.460552  7.105421 284.329144
631   1 0.0000 12.307089  5.329104  45.292993
632   1 0.0000 13.845461  6.217280  93.100223
633   1 0.0000 15.383834  7.105457 140.907453
634   1 0.0000 16.922206  7.993634 188.714684
635   1 0.0000 18.460578  8.881811 236.521914
636   1 0.0000 19.998950  9.769987 284.329144
637   1 0.0000 13.845487  7.993670  45.292993
638   1 0.0000 15.383860  8.881847  93.100223
639   1 0.0000 16.922232  9.770023 140.907453
640   1 0.0000 18.460604 10.658200 188.714684
641   1 0.0000 19.998976 11.546377 236.521914
642   1 0.0000 21.537348 12.434554 284.329144
643   1 0.0000 15.383885 10.658236  45.292993
644   1 0.0000 16.922258 11.546413  93.100223
645   1 0.0000 18.460630 12.434590 140.907453
646   1 0.0000 19.999002 13.322767 188.714684