Generated by pymatgen.io.lammps.data.LammpsData

608  atoms

  2  atom types

0.000000 6.153563  xlo xhi
0.000000 5.329133  ylo yhi
0.000000 191.228921  zlo zhi
3.076796 6.153489 3.552707  xy xz yz

Masses

1  28.0855
2  12.0107

Atoms

1    1 0.0000  1.538423 0.888206  47.807224
2    1 0.0000  3.076795 1.776383  95.614455
3    1 0.0000  4.615167 2.664559 143.421685
4    1 0.0000  6.153539 3.552736 191.228915
5    1 0.0000  3.076821 3.552772  47.807224
6    1 0.0000  4.615193 4.440949  95.614455
7    1 0.0000  6.153565 5.329126 143.421685
8    1 0.0000  7.691937 6.217303 191.228915
9    1 0.0000  4.615204 0.888206  47.807224
10   1 0.0000  6.153576 1.776383  95.614455
11   1 0.0000  7.691948 2.664559 143.421685
12   1 0.0000  9.230321 3.552736 191.228915
13   1 0.0000  6.153602 3.552772  47.807224
14   1 0.0000  7.691974 4.440949  95.614455
15   1 0.0000  9.230346 5.329126 143.421685
16   1 0.0000 10.768719 6.217303 191.228915
17   1 0.0000  4.615150 2.664549  10.064894
18   1 0.0000  6.153522 3.552726  57.872125
19   1 0.0000  7.691894 4.440903 105.679355
20   1 0.0000  9.230266 5.329080 153.486585
21   1 0.0000  6.153548 5.329116  10.064894
22   1 0.0000  7.691920 6.217293  57.872125
23   1 0.0000  9.230292 7.105469 105.679355
24   1 0.0000 10.768664 7.993646 153.486585
25   1 0.0000  7.691931 2.664549  10.064894
26   1 0.0000  9.230303 3.552726  57.872125
27   1 0.0000 10.768675 4.440903 105.679355
28   1 0.0000 12.307048 5.329080 153.486585
29   1 0.0000  9.230329 5.329116  10.064894
30   1 0.0000 10.768701 6.217293  57.872125
31   1 0.0000 12.307074 7.105469 105.679355
32   1 0.0000 13.845446 7.993646 153.486585
33   1 0.0000  4.615123 2.664534  15.097668
34   1 0.0000  6.153495 3.552710  62.904898
35   1 0.0000  7.691867 4.440887 110.712129
36   1 0.0000  9.230239 5.329064 158.519359
37   1 0.0000  6.153521 5.329100  15.097668
38   1 0.0000  7.691893 6.217277  62.904898
39   1 0.0000  9.230265 7.105454 110.712129
40   1 0.0000 10.768637 7.993630 158.519359
41   1 0.0000  7.691904 2.664534  15.097668
42   1 0.0000  9.230276 3.552710  62.904898
43   1 0.0000 10.768648 4.440887 110.712129
44   1 0.0000 12.307020 5.329064 158.519359
45   1 0.0000  9.230302 5.329100  15.097668
46   1 0.0000 10.768674 6.217277  62.904898
47   1 0.0000 12.307046 7.105454 110.712129
48   1 0.0000 13.845419 7.993630 158.519359
49   1 0.0000  4.615152 2.664551  25.158695
50   1 0.0000  6.153525 3.552728  72.965926
51   1 0.0000  7.691897 4.440904 120.773156
52   1 0.0000  9.230269 5.329081 168.580386
53   1 0.0000  6.153551 5.329117  25.158695
54   1 0.0000  7.691923 6.217294  72.965926
55   1 0.0000  9.230295 7.105471 120.773156
56   1 0.0000 10.768667 7.993648 168.580386
57   1 0.0000  7.691934 2.664551  25.158695
58   1 0.0000  9.230306 3.552728  72.965926
59   1 0.0000 10.768678 4.440904 120.773156
60   1 0.0000 12.307050 5.329081 168.580386
61   1 0.0000  9.230332 5.329117  25.158695
62   1 0.0000 10.768704 6.217294  72.965926
63   1 0.0000 12.307076 7.105471 120.773156
64   1 0.0000 13.845448 7.993648 168.580386
65   1 0.0000  4.615079 2.664509  30.192642
66   1 0.0000  6.153452 3.552685  77.999872
67   1 0.0000  7.691824 4.440862 125.807102
68   1 0.0000  9.230196 5.329039 173.614333
69   1 0.0000  6.153477 5.329075  30.192642
70   1 0.0000  7.691850 6.217252  77.999872
71   1 0.0000  9.230222 7.105429 125.807102
72   1 0.0000 10.768594 7.993605 173.614333
73   1 0.0000  7.691861 2.664509  30.192642
74   1 0.0000  9.230233 3.552685  77.999872
75   1 0.0000 10.768605 4.440862 125.807102
76   1 0.0000 12.306977 5.329039 173.614333
77   1 0.0000  9.230259 5.329075  30.192642
78   1 0.0000 10.768631 6.217252  77.999872
79   1 0.0000 12.307003 7.105429 125.807102
80   1 0.0000 13.845375 7.993605 173.614333
81   1 0.0000  4.615105 2.664523  40.255431
82   1 0.0000  6.153477 3.552700  88.062661
83   1 0.0000  7.691849 4.440877 135.869891
84   1 0.0000  9.230221 5.329054 183.677122
85   1 0.0000  6.153503 5.329090  40.255431
86   1 0.0000  7.691875 6.217267  88.062661
87   1 0.0000  9.230247 7.105443 135.869891
88   1 0.0000 10.768620 7.993620 183.677122
89   1 0.0000  7.691886 2.664523  40.255431
90   1 0.0000  9.230258 3.552700  88.062661
91   1 0.0000 10.768631 4.440877 135.869891
92   1 0.0000 12.307003 5.329054 183.677122
93   1 0.0000  9.230284 5.329090  40.255431
94   1 0.0000 10.768656 6.217267  88.062661
95   1 0.0000 12.307029 7.105443 135.869891
96   1 0.0000 13.845401 7.993620 183.677122
97   1 0.0000  4.615129 2.664537  45.292993
98   1 0.0000  6.153501 3.552714  93.100223
99   1 0.0000  7.691873 4.440891 140.907453
100  1 0.0000  9.230245 5.329067 188.714684
101  1 0.0000  6.153527 5.329104  45.292993
102  1 0.0000  7.691899 6.217280  93.100223
103  1 0.0000  9.230271 7.105457 140.907453
104  1 0.0000 10.768643 7.993634 188.714684
105  1 0.0000  7.691910 2.664537  45.292993
106  1 0.0000  9.230282 3.552714  93.100223
107  1 0.0000 10.768654 4.440891 140.907453
108  1 0.0000 12.307026 5.329067 188.714684
109  1 0.0000  9.230308 5.329104  45.292993
110  1 0.0000 10.768680 6.217280  93.100223
111  1 0.0000 12.307052 7.105457 140.907453
112  1 0.0000 13.845425 7.993634 188.714684
113  1 0.0000  3.076866 1.776424   5.032026
114  1 0.0000  4.615239 2.664601  52.839256
115  1 0.0000  6.153611 3.552777 100.646486
116  1 0.0000  7.691983 4.440954 148.453716
117  1 0.0000  4.615265 4.440990   5.032026
118  1 0.0000  6.153637 5.329167  52.839256
119  1 0.0000  7.692009 6.217344 100.646486
120  1 0.0000  9.230381 7.105521 148.453716
121  1 0.0000  6.153648 1.776424   5.032026
122  1 0.0000  7.692020 2.664601  52.839256
123  1 0.0000  9.230392 3.552777 100.646486
124  1 0.0000 10.768764 4.440954 148.453716
125  1 0.0000  7.692046 4.440990   5.032026
126  1 0.0000  9.230418 5.329167  52.839256
127  1 0.0000 10.768790 6.217344 100.646486
128  1 0.0000 12.307162 7.105521 148.453716
129  1 0.0000  3.076697 1.776326  12.581964
130  1 0.0000  4.615069 2.664503  60.389194
131  1 0.0000  6.153441 3.552679 108.196425
132  1 0.0000  7.691813 4.440856 156.003655
133  1 0.0000  4.615095 4.440892  12.581964
134  1 0.0000  6.153467 5.329069  60.389194
135  1 0.0000  7.691839 6.217246 108.196425
136  1 0.0000  9.230211 7.105423 156.003655
137  1 0.0000  6.153478 1.776326  12.581964
138  1 0.0000  7.691850 2.664503  60.389194
139  1 0.0000  9.230222 3.552679 108.196425
140  1 0.0000 10.768595 4.440856 156.003655
141  1 0.0000  7.691876 4.440892  12.581964
142  1 0.0000  9.230248 5.329069  60.389194
143  1 0.0000 10.768620 6.217246 108.196425
144  1 0.0000 12.306993 7.105423 156.003655
145  1 0.0000  3.076869 1.776426  20.128823
146  1 0.0000  4.615242 2.664602  67.936053
147  1 0.0000  6.153614 3.552779 115.743283
148  1 0.0000  7.691986 4.440956 163.550513
149  1 0.0000  4.615268 4.440992  20.128823
150  1 0.0000  6.153640 5.329169  67.936053
151  1 0.0000  7.692012 6.217346 115.743283
152  1 0.0000  9.230384 7.105522 163.550513
153  1 0.0000  6.153651 1.776426  20.128823
154  1 0.0000  7.692023 2.664602  67.936053
155  1 0.0000  9.230395 3.552779 115.743283
156  1 0.0000 10.768767 4.440956 163.550513
157  1 0.0000  7.692049 4.440992  20.128823
158  1 0.0000  9.230421 5.329169  67.936053
159  1 0.0000 10.768793 6.217346 115.743283
160  1 0.0000 12.307165 7.105522 163.550513
161  1 0.0000  3.076644 1.776296  27.675318
162  1 0.0000  4.615016 2.664472  75.482548
163  1 0.0000  6.153388 3.552649 123.289778
164  1 0.0000  7.691761 4.440826 171.097008
165  1 0.0000  4.615042 4.440862  27.675318
166  1 0.0000  6.153414 5.329039  75.482548
167  1 0.0000  7.691787 6.217215 123.289778
168  1 0.0000  9.230159 7.105392 171.097008
169  1 0.0000  6.153425 1.776296  27.675318
170  1 0.0000  7.691798 2.664472  75.482548
171  1 0.0000  9.230170 3.552649 123.289778
172  1 0.0000 10.768542 4.440826 171.097008
173  1 0.0000  7.691823 4.440862  27.675318
174  1 0.0000  9.230196 5.329039  75.482548
175  1 0.0000 10.768568 6.217215 123.289778
176  1 0.0000 12.306940 7.105392 171.097008
177  1 0.0000  3.076828 1.776402  35.225366
178  1 0.0000  4.615200 2.664578  83.032596
179  1 0.0000  6.153572 3.552755 130.839826
180  1 0.0000  7.691944 4.440932 178.647057
181  1 0.0000  4.615226 4.440968  35.225366
182  1 0.0000  6.153598 5.329145  83.032596
183  1 0.0000  7.691970 6.217322 130.839826
184  1 0.0000  9.230342 7.105498 178.647057
185  1 0.0000  6.153609 1.776402  35.225366
186  1 0.0000  7.691981 2.664578  83.032596
187  1 0.0000  9.230353 3.552755 130.839826
188  1 0.0000 10.768726 4.440932 178.647057
189  1 0.0000  7.692007 4.440968  35.225366
190  1 0.0000  9.230379 5.329145  83.032596
191  1 0.0000 10.768752 6.217322 130.839826
192  1 0.0000 12.307124 7.105498 178.647057
193  1 0.0000  3.076741 1.776352  42.774304
194  1 0.0000  4.615113 2.664528  90.581534
195  1 0.0000  6.153486 3.552705 138.388764
196  1 0.0000  7.691858 4.440882 186.195994
197  1 0.0000  4.615139 4.440918  42.774304
198  1 0.0000  6.153511 5.329095  90.581534
199  1 0.0000  7.691884 6.217272 138.388764
200  1 0.0000  9.230256 7.105448 186.195994
201  1 0.0000  6.153522 1.776352  42.774304
202  1 0.0000  7.691895 2.664528  90.581534
203  1 0.0000  9.230267 3.552705 138.388764
204  1 0.0000 10.768639 4.440882 186.195994
205  1 0.0000  7.691921 4.440918  42.774304
206  1 0.0000  9.230293 5.329095  90.581534
207  1 0.0000 10.768665 6.217272 138.388764
208  1 0.0000 12.307037 7.105448 186.195994
209  1 0.0000  1.538406 0.888196   2.513565
210  1 0.0000  3.076778 1.776373  50.320795
211  1 0.0000  4.615150 2.664550  98.128026
212  1 0.0000  6.153522 3.552726 145.935256
213  1 0.0000  3.076804 3.552763   2.513565
214  1 0.0000  4.615176 4.440939  50.320795
215  1 0.0000  6.153548 5.329116  98.128026
216  1 0.0000  7.691920 6.217293 145.935256
217  1 0.0000  4.615187 0.888196   2.513565
218  1 0.0000  6.153559 1.776373  50.320795
219  1 0.0000  7.691931 2.664550  98.128026
220  1 0.0000  9.230304 3.552726 145.935256
221  1 0.0000  6.153585 3.552763   2.513565
222  1 0.0000  7.691957 4.440939  50.320795
223  1 0.0000  9.230329 5.329116  98.128026
224  1 0.0000 10.768702 6.217293 145.935256
225  1 0.0000  1.538411 0.888199   7.550739
226  1 0.0000  3.076784 1.776376  55.357970
227  1 0.0000  4.615156 2.664553 103.165200
228  1 0.0000  6.153528 3.552730 150.972430
229  1 0.0000  3.076809 3.552766   7.550739
230  1 0.0000  4.615182 4.440943  55.357970
231  1 0.0000  6.153554 5.329119 103.165200
232  1 0.0000  7.691926 6.217296 150.972430
233  1 0.0000  4.615193 0.888199   7.550739
234  1 0.0000  6.153565 1.776376  55.357970
235  1 0.0000  7.691937 2.664553 103.165200
236  1 0.0000  9.230309 3.552730 150.972430
237  1 0.0000  6.153591 3.552766   7.550739
238  1 0.0000  7.691963 4.440943  55.357970
239  1 0.0000  9.230335 5.329119 103.165200
240  1 0.0000 10.768707 6.217296 150.972430
241  1 0.0000  1.538502 0.888252  17.610510
242  1 0.0000  3.076874 1.776429  65.417741
243  1 0.0000  4.615247 2.664605 113.224971
244  1 0.0000  6.153619 3.552782 161.032201
245  1 0.0000  3.076900 3.552818  17.610510
246  1 0.0000  4.615273 4.440995  65.417741
247  1 0.0000  6.153645 5.329172 113.224971
248  1 0.0000  7.692017 6.217348 161.032201
249  1 0.0000  4.615284 0.888252  17.610510
250  1 0.0000  6.153656 1.776429  65.417741
251  1 0.0000  7.692028 2.664605 113.224971
252  1 0.0000  9.230400 3.552782 161.032201
253  1 0.0000  6.153682 3.552818  17.610510
254  1 0.0000  7.692054 4.440995  65.417741
255  1 0.0000  9.230426 5.329172 113.224971
256  1 0.0000 10.768798 6.217348 161.032201
257  1 0.0000  1.538400 0.888193  22.646127
258  1 0.0000  3.076773 1.776370  70.453357
259  1 0.0000  4.615145 2.664546 118.260588
260  1 0.0000  6.153517 3.552723 166.067818
261  1 0.0000  3.076798 3.552759  22.646127
262  1 0.0000  4.615171 4.440936  70.453357
263  1 0.0000  6.153543 5.329113 118.260588
264  1 0.0000  7.691915 6.217290 166.067818
265  1 0.0000  4.615182 0.888193  22.646127
266  1 0.0000  6.153554 1.776370  70.453357
267  1 0.0000  7.691926 2.664546 118.260588
268  1 0.0000  9.230298 3.552723 166.067818
269  1 0.0000  6.153580 3.552759  22.646127
270  1 0.0000  7.691952 4.440936  70.453357
271  1 0.0000  9.230324 5.329113 118.260588
272  1 0.0000 10.768696 6.217290 166.067818
273  1 0.0000  1.538385 0.888184  32.707079
274  1 0.0000  3.076758 1.776361  80.514310
275  1 0.0000  4.615130 2.664538 128.321540
276  1 0.0000  6.153502 3.552715 176.128770
277  1 0.0000  3.076784 3.552751  32.707079
278  1 0.0000  4.615156 4.440928  80.514310
279  1 0.0000  6.153528 5.329104 128.321540
280  1 0.0000  7.691900 6.217281 176.128770
281  1 0.0000  4.615167 0.888184  32.707079
282  1 0.0000  6.153539 1.776361  80.514310
283  1 0.0000  7.691911 2.664538 128.321540
284  1 0.0000  9.230283 3.552715 176.128770
285  1 0.0000  6.153565 3.552751  32.707079
286  1 0.0000  7.691937 4.440928  80.514310
287  1 0.0000  9.230309 5.329104 128.321540
288  1 0.0000 10.768681 6.217281 176.128770
289  1 0.0000  1.538368 0.888174  37.742154
290  1 0.0000  3.076740 1.776351  85.549384
291  1 0.0000  4.615112 2.664528 133.356615
292  1 0.0000  6.153484 3.552704 181.163845
293  1 0.0000  3.076766 3.552741  37.742154
294  1 0.0000  4.615138 4.440917  85.549384
295  1 0.0000  6.153510 5.329094 133.356615
296  1 0.0000  7.691882 6.217271 181.163845
297  1 0.0000  4.615149 0.888174  37.742154
298  1 0.0000  6.153521 1.776351  85.549384
299  1 0.0000  7.691893 2.664528 133.356615
300  1 0.0000  9.230265 3.552704 181.163845
301  1 0.0000  6.153547 3.552741  37.742154
302  1 0.0000  7.691919 4.440917  85.549384
303  1 0.0000  9.230291 5.329094 133.356615
304  1 0.0000 10.768664 6.217271 181.163845
305  2 0.0000  4.615175 2.664564   1.887442
306  2 0.0000  6.153547 3.552741  49.694673
307  2 0.0000  7.691919 4.440917  97.501903
308  2 0.0000  9.230292 5.329094 145.309133
309  2 0.0000  6.153573 5.329130   1.887442
310  2 0.0000  7.691945 6.217307  49.694673
311  2 0.0000  9.230317 7.105484  97.501903
312  2 0.0000 10.768690 7.993661 145.309133
313  2 0.0000  7.691956 2.664564   1.887442
314  2 0.0000  9.230328 3.552741  49.694673
315  2 0.0000 10.768701 4.440917  97.501903
316  2 0.0000 12.307073 5.329094 145.309133
317  2 0.0000  9.230354 5.329130   1.887442
318  2 0.0000 10.768727 6.217307  49.694673
319  2 0.0000 12.307099 7.105484  97.501903
320  2 0.0000 13.845471 7.993661 145.309133
321  2 0.0000  4.615151 2.664550  11.951283
322  2 0.0000  6.153523 3.552727  59.758513
323  2 0.0000  7.691895 4.440903 107.565743
324  2 0.0000  9.230267 5.329080 155.372973
325  2 0.0000  6.153549 5.329116  11.951283
326  2 0.0000  7.691921 6.217293  59.758513
327  2 0.0000  9.230293 7.105470 107.565743
328  2 0.0000 10.768666 7.993647 155.372973
329  2 0.0000  7.691932 2.664550  11.951283
330  2 0.0000  9.230304 3.552727  59.758513
331  2 0.0000 10.768677 4.440903 107.565743
332  2 0.0000 12.307049 5.329080 155.372973
333  2 0.0000  9.230330 5.329116  11.951283
334  2 0.0000 10.768702 6.217293  59.758513
335  2 0.0000 12.307075 7.105470 107.565743
336  2 0.0000 13.845447 7.993647 155.372973
337  2 0.0000  4.615216 2.664587  16.983957
338  2 0.0000  6.153588 3.552764  64.791188
339  2 0.0000  7.691960 4.440941 112.598418
340  2 0.0000  9.230332 5.329118 160.405648
341  2 0.0000  6.153614 5.329154  16.983957
342  2 0.0000  7.691986 6.217331  64.791188
343  2 0.0000  9.230358 7.105507 112.598418
344  2 0.0000 10.768730 7.993684 160.405648
345  2 0.0000  7.691997 2.664587  16.983957
346  2 0.0000  9.230369 3.552764  64.791188
347  2 0.0000 10.768741 4.440941 112.598418
348  2 0.0000 12.307114 5.329118 160.405648
349  2 0.0000  9.230395 5.329154  16.983957
350  2 0.0000 10.768767 6.217331  64.791188
351  2 0.0000 12.307140 7.105507 112.598418
352  2 0.0000 13.845512 7.993684 160.405648
353  2 0.0000  4.615160 2.664555  27.044547
354  2 0.0000  6.153532 3.552732  74.851777
355  2 0.0000  7.691905 4.440909 122.659008
356  2 0.0000  9.230277 5.329086 170.466238
357  2 0.0000  6.153558 5.329122  27.044547
358  2 0.0000  7.691930 6.217299  74.851777
359  2 0.0000  9.230303 7.105475 122.659008
360  2 0.0000 10.768675 7.993652 170.466238
361  2 0.0000  7.691941 2.664555  27.044547
362  2 0.0000  9.230314 3.552732  74.851777
363  2 0.0000 10.768686 4.440909 122.659008
364  2 0.0000 12.307058 5.329086 170.466238
365  2 0.0000  9.230340 5.329122  27.044547
366  2 0.0000 10.768712 6.217299  74.851777
367  2 0.0000 12.307084 7.105475 122.659008
368  2 0.0000 13.845456 7.993652 170.466238
369  2 0.0000  4.615213 2.664586  32.080090
370  2 0.0000  6.153586 3.552763  79.887320
371  2 0.0000  7.691958 4.440940 127.694550
372  2 0.0000  9.230330 5.329116 175.501780
373  2 0.0000  6.153611 5.329153  32.080090
374  2 0.0000  7.691984 6.217329  79.887320
375  2 0.0000  9.230356 7.105506 127.694550
376  2 0.0000 10.768728 7.993683 175.501780
377  2 0.0000  7.691995 2.664586  32.080090
378  2 0.0000  9.230367 3.552763  79.887320
379  2 0.0000 10.768739 4.440940 127.694550
380  2 0.0000 12.307111 5.329116 175.501780
381  2 0.0000  9.230393 5.329153  32.080090
382  2 0.0000 10.768765 6.217329  79.887320
383  2 0.0000 12.307137 7.105506 127.694550
384  2 0.0000 13.845509 7.993683 175.501780
385  2 0.0000  4.615206 2.664582  42.142503
386  2 0.0000  6.153578 3.552758  89.949733
387  2 0.0000  7.691950 4.440935 137.756964
388  2 0.0000  9.230322 5.329112 185.564194
389  2 0.0000  6.153604 5.329148  42.142503
390  2 0.0000  7.691976 6.217325  89.949733
391  2 0.0000  9.230348 7.105502 137.756964
392  2 0.0000 10.768720 7.993678 185.564194
393  2 0.0000  7.691987 2.664582  42.142503
394  2 0.0000  9.230359 3.552758  89.949733
395  2 0.0000 10.768731 4.440935 137.756964
396  2 0.0000 12.307104 5.329112 185.564194
397  2 0.0000  9.230385 5.329148  42.142503
398  2 0.0000 10.768757 6.217325  89.949733
399  2 0.0000 12.307130 7.105502 137.756964
400  2 0.0000 13.845502 7.993678 185.564194
401  2 0.0000  4.615197 2.664577  47.180412
402  2 0.0000  6.153570 3.552754  94.987642
403  2 0.0000  7.691942 4.440930 142.794872
404  2 0.0000  9.230314 5.329107 190.602103
405  2 0.0000  6.153596 5.329143  47.180412
406  2 0.0000  7.691968 6.217320  94.987642
407  2 0.0000  9.230340 7.105497 142.794872
408  2 0.0000 10.768712 7.993674 190.602103
409  2 0.0000  7.691979 2.664577  47.180412
410  2 0.0000  9.230351 3.552754  94.987642
411  2 0.0000 10.768723 4.440930 142.794872
412  2 0.0000 12.307095 5.329107 190.602103
413  2 0.0000  9.230377 5.329143  47.180412
414  2 0.0000 10.768749 6.217320  94.987642
415  2 0.0000 12.307121 7.105497 142.794872
416  2 0.0000 13.845493 7.993674 190.602103
417  2 0.0000  3.076769 1.776368   6.925469
418  2 0.0000  4.615141 2.664544  54.732699
419  2 0.0000  6.153514 3.552721 102.539930
420  2 0.0000  7.691886 4.440898 150.347160
421  2 0.0000  4.615167 4.440934   6.925469
422  2 0.0000  6.153539 5.329111  54.732699
423  2 0.0000  7.691912 6.217288 102.539930
424  2 0.0000  9.230284 7.105464 150.347160
425  2 0.0000  6.153550 1.776368   6.925469
426  2 0.0000  7.691923 2.664544  54.732699
427  2 0.0000  9.230295 3.552721 102.539930
428  2 0.0000 10.768667 4.440898 150.347160
429  2 0.0000  7.691949 4.440934   6.925469
430  2 0.0000  9.230321 5.329111  54.732699
431  2 0.0000 10.768693 6.217288 102.539930
432  2 0.0000 12.307065 7.105464 150.347160
433  2 0.0000  3.076767 1.776366  14.473474
434  2 0.0000  4.615139 2.664543  62.280705
435  2 0.0000  6.153511 3.552720 110.087935
436  2 0.0000  7.691883 4.440897 157.895165
437  2 0.0000  4.615165 4.440933  14.473474
438  2 0.0000  6.153537 5.329110  62.280705
439  2 0.0000  7.691909 6.217286 110.087935
440  2 0.0000  9.230281 7.105463 157.895165
441  2 0.0000  6.153548 1.776366  14.473474
442  2 0.0000  7.691920 2.664543  62.280705
443  2 0.0000  9.230292 3.552720 110.087935
444  2 0.0000 10.768665 4.440897 157.895165
445  2 0.0000  7.691946 4.440933  14.473474
446  2 0.0000  9.230318 5.329110  62.280705
447  2 0.0000 10.768690 6.217286 110.087935
448  2 0.0000 12.307063 7.105463 157.895165
449  2 0.0000  3.076782 1.776375  22.021422
450  2 0.0000  4.615154 2.664552  69.828653
451  2 0.0000  6.153526 3.552729 117.635883
452  2 0.0000  7.691899 4.440905 165.443113
453  2 0.0000  4.615180 4.440942  22.021422
454  2 0.0000  6.153552 5.329118  69.828653
455  2 0.0000  7.691924 6.217295 117.635883
456  2 0.0000  9.230297 7.105472 165.443113
457  2 0.0000  6.153563 1.776375  22.021422
458  2 0.0000  7.691935 2.664552  69.828653
459  2 0.0000  9.230308 3.552729 117.635883
460  2 0.0000 10.768680 4.440905 165.443113
461  2 0.0000  7.691961 4.440942  22.021422
462  2 0.0000  9.230333 5.329118  69.828653
463  2 0.0000 10.768706 6.217295 117.635883
464  2 0.0000 12.307078 7.105472 165.443113
465  2 0.0000  3.076777 1.776372  29.567644
466  2 0.0000  4.615149 2.664549  77.374874
467  2 0.0000  6.153521 3.552726 125.182104
468  2 0.0000  7.691894 4.440902 172.989334
469  2 0.0000  4.615175 4.440939  29.567644
470  2 0.0000  6.153547 5.329115  77.374874
471  2 0.0000  7.691919 6.217292 125.182104
472  2 0.0000  9.230292 7.105469 172.989334
473  2 0.0000  6.153558 1.776372  29.567644
474  2 0.0000  7.691930 2.664549  77.374874
475  2 0.0000  9.230303 3.552726 125.182104
476  2 0.0000 10.768675 4.440902 172.989334
477  2 0.0000  7.691956 4.440939  29.567644
478  2 0.0000  9.230329 5.329115  77.374874
479  2 0.0000 10.768701 6.217292 125.182104
480  2 0.0000 12.307073 7.105469 172.989334
481  2 0.0000  3.076766 1.776366  37.117670
482  2 0.0000  4.615138 2.664543  84.924901
483  2 0.0000  6.153511 3.552720 132.732131
484  2 0.0000  7.691883 4.440896 180.539361
485  2 0.0000  4.615164 4.440933  37.117670
486  2 0.0000  6.153537 5.329109  84.924901
487  2 0.0000  7.691909 6.217286 132.732131
488  2 0.0000  9.230281 7.105463 180.539361
489  2 0.0000  6.153548 1.776366  37.117670
490  2 0.0000  7.691920 2.664543  84.924901
491  2 0.0000  9.230292 3.552720 132.732131
492  2 0.0000 10.768664 4.440896 180.539361
493  2 0.0000  7.691946 4.440933  37.117670
494  2 0.0000  9.230318 5.329109  84.924901
495  2 0.0000 10.768690 6.217286 132.732131
496  2 0.0000 12.307062 7.105463 180.539361
497  2 0.0000  3.076760 1.776362  44.667718
498  2 0.0000  4.615132 2.664539  92.474949
499  2 0.0000  6.153504 3.552716 140.282179
500  2 0.0000  7.691876 4.440893 188.089409
501  2 0.0000  4.615158 4.440929  44.667718
502  2 0.0000  6.153530 5.329106  92.474949
503  2 0.0000  7.691902 6.217282 140.282179
504  2 0.0000  9.230274 7.105459 188.089409
505  2 0.0000  6.153541 1.776362  44.667718
506  2 0.0000  7.691913 2.664539  92.474949
507  2 0.0000  9.230285 3.552716 140.282179
508  2 0.0000 10.768658 4.440893 188.089409
509  2 0.0000  7.691939 4.440929  44.667718
510  2 0.0000  9.230311 5.329106  92.474949
511  2 0.0000 10.768684 6.217282 140.282179
512  2 0.0000 12.307056 7.105459 188.089409
513  2 0.0000  1.538429 0.888210   4.400558
514  2 0.0000  3.076801 1.776386  52.207788
515  2 0.0000  4.615173 2.664563 100.015018
516  2 0.0000  6.153546 3.552740 147.822248
517  2 0.0000  3.076827 3.552776   4.400558
518  2 0.0000  4.615199 4.440953  52.207788
519  2 0.0000  6.153571 5.329129 100.015018
520  2 0.0000  7.691944 6.217306 147.822248
521  2 0.0000  4.615210 0.888210   4.400558
522  2 0.0000  6.153582 1.776386  52.207788
523  2 0.0000  7.691955 2.664563 100.015018
524  2 0.0000  9.230327 3.552740 147.822248
525  2 0.0000  6.153608 3.552776   4.400558
526  2 0.0000  7.691981 4.440953  52.207788
527  2 0.0000  9.230353 5.329129 100.015018
528  2 0.0000 10.768725 6.217306 147.822248
529  2 0.0000  1.538366 0.888173   9.438310
530  2 0.0000  3.076738 1.776350  57.245540
531  2 0.0000  4.615110 2.664527 105.052770
532  2 0.0000  6.153482 3.552703 152.860001
533  2 0.0000  3.076764 3.552740   9.438310
534  2 0.0000  4.615136 4.440916  57.245540
535  2 0.0000  6.153508 5.329093 105.052770
536  2 0.0000  7.691881 6.217270 152.860001
537  2 0.0000  4.615147 0.888173   9.438310
538  2 0.0000  6.153519 1.776350  57.245540
539  2 0.0000  7.691892 2.664527 105.052770
540  2 0.0000  9.230264 3.552703 152.860001
541  2 0.0000  6.153545 3.552740   9.438310
542  2 0.0000  7.691917 4.440916  57.245540
543  2 0.0000  9.230290 5.329093 105.052770
544  2 0.0000 10.768662 6.217270 152.860001
545  2 0.0000  1.538376 0.888179  19.497296
546  2 0.0000  3.076749 1.776356  67.304526
547  2 0.0000  4.615121 2.664533 115.111756
548  2 0.0000  6.153493 3.552709 162.918987
549  2 0.0000  3.076775 3.552746  19.497296
550  2 0.0000  4.615147 4.440922  67.304526
551  2 0.0000  6.153519 5.329099 115.111756
552  2 0.0000  7.691891 6.217276 162.918987
553  2 0.0000  4.615158 0.888179  19.497296
554  2 0.0000  6.153530 1.776356  67.304526
555  2 0.0000  7.691902 2.664533 115.111756
556  2 0.0000  9.230274 3.552709 162.918987
557  2 0.0000  6.153556 3.552746  19.497296
558  2 0.0000  7.691928 4.440922  67.304526
559  2 0.0000  9.230300 5.329099 115.111756
560  2 0.0000 10.768672 6.217276 162.918987
561  2 0.0000  1.538391 0.888187  24.532657
562  2 0.0000  3.076763 1.776364  72.339887
563  2 0.0000  4.615135 2.664541 120.147117
564  2 0.0000  6.153507 3.552718 167.954348
565  2 0.0000  3.076789 3.552754  24.532657
566  2 0.0000  4.615161 4.440931  72.339887
567  2 0.0000  6.153533 5.329107 120.147117
568  2 0.0000  7.691905 6.217284 167.954348
569  2 0.0000  4.615172 0.888187  24.532657
570  2 0.0000  6.153544 1.776364  72.339887
571  2 0.0000  7.691916 2.664541 120.147117
572  2 0.0000  9.230289 3.552718 167.954348
573  2 0.0000  6.153570 3.552754  24.532657
574  2 0.0000  7.691942 4.440931  72.339887
575  2 0.0000  9.230314 5.329107 120.147117
576  2 0.0000 10.768687 6.217284 167.954348
577  2 0.0000  1.538389 0.888186  34.594153
578  2 0.0000  3.076761 1.776363  82.401383
579  2 0.0000  4.615133 2.664540 130.208614
580  2 0.0000  6.153505 3.552716 178.015844
581  2 0.0000  3.076787 3.552753  34.594153
582  2 0.0000  4.615159 4.440929  82.401383
583  2 0.0000  6.153531 5.329106 130.208614
584  2 0.0000  7.691903 6.217283 178.015844
585  2 0.0000  4.615170 0.888186  34.594153
586  2 0.0000  6.153542 1.776363  82.401383
587  2 0.0000  7.691914 2.664540 130.208614
588  2 0.0000  9.230286 3.552716 178.015844
589  2 0.0000  6.153568 3.552753  34.594153
590  2 0.0000  7.691940 4.440929  82.401383
591  2 0.0000  9.230312 5.329106 130.208614
592  2 0.0000 10.768685 6.217283 178.015844
593  2 0.0000  1.538305 0.888138  39.628764
594  2 0.0000  3.076677 1.776314  87.435994
595  2 0.0000  4.615049 2.664491 135.243224
596  2 0.0000  6.153421 3.552668 183.050454
597  2 0.0000  3.076703 3.552704  39.628764
598  2 0.0000  4.615075 4.440881  87.435994
599  2 0.0000  6.153447 5.329058 135.243224
600  2 0.0000  7.691819 6.217234 183.050454
601  2 0.0000  4.615086 0.888138  39.628764
602  2 0.0000  6.153458 1.776314  87.435994
603  2 0.0000  7.691830 2.664491 135.243224
604  2 0.0000  9.230202 3.552668 183.050454
605  2 0.0000  6.153484 3.552704  39.628764
606  2 0.0000  7.691856 4.440881  87.435994
607  2 0.0000  9.230228 5.329058 135.243224
608  2 0.0000 10.768601 6.217234 183.050454

