Generated by pymatgen.io.lammps.data.LammpsData

144  atoms

  2  atom types

0.000000 9.829932  xlo xhi
0.000000 8.512972  ylo yhi
0.000000 21.725205  zlo zhi
-4.914965 0.000000 0.000000  xy xz yz

Masses

1  28.0855
2  15.9994

Atoms

1    1 0.0000  1.305141 2.260571 -0.000000
2    1 0.0000  1.305141 2.260571  5.431301
3    1 0.0000  1.305141 2.260571 10.862602
4    1 0.0000  1.305141 2.260571 16.293903
5    1 0.0000 -1.152341 6.517057 -0.000000
6    1 0.0000 -1.152341 6.517057  5.431301
7    1 0.0000 -1.152341 6.517057 10.862602
8    1 0.0000 -1.152341 6.517057 16.293903
9    1 0.0000  6.220107 2.260571  0.000000
10   1 0.0000  6.220107 2.260571  5.431301
11   1 0.0000  6.220107 2.260571 10.862602
12   1 0.0000  6.220107 2.260571 16.293903
13   1 0.0000  3.762625 6.517057  0.000000
14   1 0.0000  3.762625 6.517057  5.431301
15   1 0.0000  3.762625 6.517057 10.862602
16   1 0.0000  3.762625 6.517057 16.293903
17   1 0.0000 -1.152342 1.995915  3.620867
18   1 0.0000 -1.152342 1.995915  9.052169
19   1 0.0000 -1.152342 1.995915 14.483470
20   1 0.0000 -1.152342 1.995915 19.914771
21   1 0.0000 -3.609824 6.252401  3.620867
22   1 0.0000 -3.609824 6.252401  9.052169
23   1 0.0000 -3.609824 6.252401 14.483470
24   1 0.0000 -3.609824 6.252401 19.914771
25   1 0.0000  3.762624 1.995915  3.620867
26   1 0.0000  3.762624 1.995915  9.052169
27   1 0.0000  3.762624 1.995915 14.483470
28   1 0.0000  3.762624 1.995915 19.914771
29   1 0.0000  1.305142 6.252401  3.620867
30   1 0.0000  1.305142 6.252401  9.052169
31   1 0.0000  1.305142 6.252401 14.483470
32   1 0.0000  1.305142 6.252401 19.914771
33   1 0.0000  2.304684 0.000000  1.810434
34   1 0.0000  2.304684 0.000000  7.241735
35   1 0.0000  2.304684 0.000000 12.673036
36   1 0.0000  2.304684 0.000000 18.104337
37   1 0.0000 -0.152799 4.256486  1.810434
38   1 0.0000 -0.152799 4.256486  7.241735
39   1 0.0000 -0.152799 4.256486 12.673036
40   1 0.0000 -0.152799 4.256486 18.104337
41   1 0.0000  7.219650 0.000000  1.810434
42   1 0.0000  7.219650 0.000000  7.241735
43   1 0.0000  7.219650 0.000000 12.673036
44   1 0.0000  7.219650 0.000000 18.104337
45   1 0.0000  4.762167 4.256486  1.810434
46   1 0.0000  4.762167 4.256486  7.241735
47   1 0.0000  4.762167 4.256486 12.673036
48   1 0.0000  4.762167 4.256486 18.104337
49   2 0.0000  0.307313 1.759607  4.262979
50   2 0.0000  0.307313 1.759607  9.694280
51   2 0.0000  0.307313 1.759607 15.125582
52   2 0.0000  0.307313 1.759607 20.556883
53   2 0.0000 -2.150169 6.016093  4.262979
54   2 0.0000 -2.150169 6.016093  9.694280
55   2 0.0000 -2.150169 6.016093 15.125582
56   2 0.0000 -2.150169 6.016093 20.556883
57   2 0.0000  5.222279 1.759607  4.262979
58   2 0.0000  5.222279 1.759607  9.694280
59   2 0.0000  5.222279 1.759607 15.125582
60   2 0.0000  5.222279 1.759607 20.556883
61   2 0.0000  2.764797 6.016093  4.262979
62   2 0.0000  2.764797 6.016093  9.694280
63   2 0.0000  2.764797 6.016093 15.125582
64   2 0.0000  2.764797 6.016093 20.556883
65   2 0.0000  0.779965 3.642819  0.642115
66   2 0.0000  0.779965 3.642819  6.073417
67   2 0.0000  0.779965 3.642819 11.504718
68   2 0.0000  0.779965 3.642819 16.936019
69   2 0.0000 -1.677517 7.899305  0.642115
70   2 0.0000 -1.677517 7.899305  6.073417
71   2 0.0000 -1.677517 7.899305 11.504718
72   2 0.0000 -1.677517 7.899305 16.936019
73   2 0.0000  5.694931 3.642819  0.642115
74   2 0.0000  5.694931 3.642819  6.073417
75   2 0.0000  5.694931 3.642819 11.504718
76   2 0.0000  5.694931 3.642819 16.936019
77   2 0.0000  3.237449 7.899305  0.642115
78   2 0.0000  3.237449 7.899305  6.073417
79   2 0.0000  3.237449 7.899305 11.504718
80   2 0.0000  3.237449 7.899305 16.936019
81   2 0.0000 -1.087270 3.110542  2.452547
82   2 0.0000 -1.087270 3.110542  7.883849
83   2 0.0000 -1.087270 3.110542 13.315150
84   2 0.0000 -1.087270 3.110542 18.746451
85   2 0.0000 -3.544753 7.367028  2.452547
86   2 0.0000 -3.544753 7.367028  7.883849
87   2 0.0000 -3.544753 7.367028 13.315150
88   2 0.0000 -3.544753 7.367028 18.746451
89   2 0.0000  3.827696 3.110542  2.452547
90   2 0.0000  3.827696 3.110542  7.883849
91   2 0.0000  3.827696 3.110542 13.315150
92   2 0.0000  3.827696 3.110542 18.746451
93   2 0.0000  1.370213 7.367028  2.452547
94   2 0.0000  1.370213 7.367028  7.883849
95   2 0.0000  1.370213 7.367028 13.315150
96   2 0.0000  1.370213 7.367028 18.746451
97   2 0.0000  1.370208 1.145944  1.168322
98   2 0.0000  1.370208 1.145944  6.599623
99   2 0.0000  1.370208 1.145944 12.030924
100  2 0.0000  1.370208 1.145944 17.462225
101  2 0.0000 -1.087275 5.402431  1.168322
102  2 0.0000 -1.087275 5.402431  6.599623
103  2 0.0000 -1.087275 5.402431 12.030924
104  2 0.0000 -1.087275 5.402431 17.462225
105  2 0.0000  6.285174 1.145944  1.168322
106  2 0.0000  6.285174 1.145944  6.599623
107  2 0.0000  6.285174 1.145944 12.030924
108  2 0.0000  6.285174 1.145944 17.462225
109  2 0.0000  3.827691 5.402431  1.168322
110  2 0.0000  3.827691 5.402431  6.599623
111  2 0.0000  3.827691 5.402431 12.030924
112  2 0.0000  3.827691 5.402431 17.462225
113  2 0.0000  3.237443 0.613667  2.978754
114  2 0.0000  3.237443 0.613667  8.410055
115  2 0.0000  3.237443 0.613667 13.841356
116  2 0.0000  3.237443 0.613667 19.272657
117  2 0.0000  0.779960 4.870153  2.978754
118  2 0.0000  0.779960 4.870153  8.410055
119  2 0.0000  0.779960 4.870153 13.841356
120  2 0.0000  0.779960 4.870153 19.272657
121  2 0.0000  8.152409 0.613667  2.978754
122  2 0.0000  8.152409 0.613667  8.410055
123  2 0.0000  8.152409 0.613667 13.841356
124  2 0.0000  8.152409 0.613667 19.272657
125  2 0.0000  5.694926 4.870153  2.978754
126  2 0.0000  5.694926 4.870153  8.410055
127  2 0.0000  5.694926 4.870153 13.841356
128  2 0.0000  5.694926 4.870153 19.272657
129  2 0.0000  2.764791 2.496879  4.789186
130  2 0.0000  2.764791 2.496879 10.220487
131  2 0.0000  2.764791 2.496879 15.651788
132  2 0.0000  2.764791 2.496879 21.083089
133  2 0.0000  0.307309 6.753365  4.789186
134  2 0.0000  0.307309 6.753365 10.220487
135  2 0.0000  0.307309 6.753365 15.651788
136  2 0.0000  0.307309 6.753365 21.083089
137  2 0.0000  7.679757 2.496879  4.789186
138  2 0.0000  7.679757 2.496879 10.220487
139  2 0.0000  7.679757 2.496879 15.651788
140  2 0.0000  7.679757 2.496879 21.083089
141  2 0.0000  5.222275 6.753365  4.789186
142  2 0.0000  5.222275 6.753365 10.220487
143  2 0.0000  5.222275 6.753365 15.651788
144  2 0.0000  5.222275 6.753365 21.083089

