Generated by pymatgen.io.lammps.data.LammpsData

864  atoms

  2  atom types

0.000000 19.659864  xlo xhi
0.000000 17.025944  ylo yhi
0.000000 32.587807  zlo zhi
-9.829930 0.000000 0.000000  xy xz yz

Masses

1  28.0855
2  15.9994

Atoms

1    1 0.0000  1.305141  2.260571  0.000000
2    1 0.0000  1.305141  2.260571  5.431301
3    1 0.0000  1.305141  2.260571 10.862602
4    1 0.0000  1.305141  2.260571 16.293903
5    1 0.0000  1.305141  2.260571 21.725205
6    1 0.0000  1.305141  2.260571 27.156506
7    1 0.0000 -1.152341  6.517057 -0.000000
8    1 0.0000 -1.152341  6.517057  5.431301
9    1 0.0000 -1.152341  6.517057 10.862602
10   1 0.0000 -1.152341  6.517057 16.293903
11   1 0.0000 -1.152341  6.517057 21.725205
12   1 0.0000 -1.152341  6.517057 27.156506
13   1 0.0000 -3.609824 10.773543  0.000000
14   1 0.0000 -3.609824 10.773543  5.431301
15   1 0.0000 -3.609824 10.773543 10.862602
16   1 0.0000 -3.609824 10.773543 16.293903
17   1 0.0000 -3.609824 10.773543 21.725205
18   1 0.0000 -3.609824 10.773543 27.156506
19   1 0.0000 -6.067306 15.030029  0.000000
20   1 0.0000 -6.067306 15.030029  5.431301
21   1 0.0000 -6.067306 15.030029 10.862602
22   1 0.0000 -6.067306 15.030029 16.293903
23   1 0.0000 -6.067306 15.030029 21.725205
24   1 0.0000 -6.067306 15.030029 27.156506
25   1 0.0000  6.220107  2.260571 -0.000000
26   1 0.0000  6.220107  2.260571  5.431301
27   1 0.0000  6.220107  2.260571 10.862602
28   1 0.0000  6.220107  2.260571 16.293903
29   1 0.0000  6.220107  2.260571 21.725205
30   1 0.0000  6.220107  2.260571 27.156506
31   1 0.0000  3.762625  6.517057  0.000000
32   1 0.0000  3.762625  6.517057  5.431301
33   1 0.0000  3.762625  6.517057 10.862602
34   1 0.0000  3.762625  6.517057 16.293903
35   1 0.0000  3.762625  6.517057 21.725205
36   1 0.0000  3.762625  6.517057 27.156506
37   1 0.0000  1.305142 10.773543  0.000000
38   1 0.0000  1.305142 10.773543  5.431301
39   1 0.0000  1.305142 10.773543 10.862602
40   1 0.0000  1.305142 10.773543 16.293903
41   1 0.0000  1.305142 10.773543 21.725205
42   1 0.0000  1.305142 10.773543 27.156506
43   1 0.0000 -1.152340 15.030029  0.000000
44   1 0.0000 -1.152340 15.030029  5.431301
45   1 0.0000 -1.152340 15.030029 10.862602
46   1 0.0000 -1.152340 15.030029 16.293903
47   1 0.0000 -1.152340 15.030029 21.725205
48   1 0.0000 -1.152340 15.030029 27.156506
49   1 0.0000 11.135073  2.260571  0.000000
50   1 0.0000 11.135073  2.260571  5.431301
51   1 0.0000 11.135073  2.260571 10.862602
52   1 0.0000 11.135073  2.260571 16.293903
53   1 0.0000 11.135073  2.260571 21.725205
54   1 0.0000 11.135073  2.260571 27.156506
55   1 0.0000  8.677591  6.517057  0.000000
56   1 0.0000  8.677591  6.517057  5.431301
57   1 0.0000  8.677591  6.517057 10.862602
58   1 0.0000  8.677591  6.517057 16.293903
59   1 0.0000  8.677591  6.517057 21.725205
60   1 0.0000  8.677591  6.517057 27.156506
61   1 0.0000  6.220108 10.773543  0.000000
62   1 0.0000  6.220108 10.773543  5.431301
63   1 0.0000  6.220108 10.773543 10.862602
64   1 0.0000  6.220108 10.773543 16.293903
65   1 0.0000  6.220108 10.773543 21.725205
66   1 0.0000  6.220108 10.773543 27.156506
67   1 0.0000  3.762626 15.030029  0.000000
68   1 0.0000  3.762626 15.030029  5.431301
69   1 0.0000  3.762626 15.030029 10.862602
70   1 0.0000  3.762626 15.030029 16.293903
71   1 0.0000  3.762626 15.030029 21.725205
72   1 0.0000  3.762626 15.030029 27.156506
73   1 0.0000 16.050039  2.260571  0.000000
74   1 0.0000 16.050039  2.260571  5.431301
75   1 0.0000 16.050039  2.260571 10.862602
76   1 0.0000 16.050039  2.260571 16.293903
77   1 0.0000 16.050039  2.260571 21.725205
78   1 0.0000 16.050039  2.260571 27.156506
79   1 0.0000 13.592557  6.517057  0.000000
80   1 0.0000 13.592557  6.517057  5.431301
81   1 0.0000 13.592557  6.517057 10.862602
82   1 0.0000 13.592557  6.517057 16.293903
83   1 0.0000 13.592557  6.517057 21.725205
84   1 0.0000 13.592557  6.517057 27.156506
85   1 0.0000 11.135074 10.773543  0.000000
86   1 0.0000 11.135074 10.773543  5.431301
87   1 0.0000 11.135074 10.773543 10.862602
88   1 0.0000 11.135074 10.773543 16.293903
89   1 0.0000 11.135074 10.773543 21.725205
90   1 0.0000 11.135074 10.773543 27.156506
91   1 0.0000  8.677592 15.030029  0.000000
92   1 0.0000  8.677592 15.030029  5.431301
93   1 0.0000  8.677592 15.030029 10.862602
94   1 0.0000  8.677592 15.030029 16.293903
95   1 0.0000  8.677592 15.030029 21.725205
96   1 0.0000  8.677592 15.030029 27.156506
97   1 0.0000 -1.152342  1.995915  3.620867
98   1 0.0000 -1.152342  1.995915  9.052169
99   1 0.0000 -1.152342  1.995915 14.483470
100  1 0.0000 -1.152342  1.995915 19.914771
101  1 0.0000 -1.152342  1.995915 25.346072
102  1 0.0000 -1.152342  1.995915 30.777373
103  1 0.0000 -3.609824  6.252401  3.620867
104  1 0.0000 -3.609824  6.252401  9.052169
105  1 0.0000 -3.609824  6.252401 14.483470
106  1 0.0000 -3.609824  6.252401 19.914771
107  1 0.0000 -3.609824  6.252401 25.346072
108  1 0.0000 -3.609824  6.252401 30.777373
109  1 0.0000 -6.067307 10.508887  3.620867
110  1 0.0000 -6.067307 10.508887  9.052169
111  1 0.0000 -6.067307 10.508887 14.483470
112  1 0.0000 -6.067307 10.508887 19.914771
113  1 0.0000 -6.067307 10.508887 25.346072
114  1 0.0000 -6.067307 10.508887 30.777373
115  1 0.0000 -8.524789 14.765373  3.620867
116  1 0.0000 -8.524789 14.765373  9.052169
117  1 0.0000 -8.524789 14.765373 14.483470
118  1 0.0000 -8.524789 14.765373 19.914771
119  1 0.0000 -8.524789 14.765373 25.346072
120  1 0.0000 -8.524789 14.765373 30.777373
121  1 0.0000  3.762624  1.995915  3.620867
122  1 0.0000  3.762624  1.995915  9.052169
123  1 0.0000  3.762624  1.995915 14.483470
124  1 0.0000  3.762624  1.995915 19.914771
125  1 0.0000  3.762624  1.995915 25.346072
126  1 0.0000  3.762624  1.995915 30.777373
127  1 0.0000  1.305142  6.252401  3.620867
128  1 0.0000  1.305142  6.252401  9.052169
129  1 0.0000  1.305142  6.252401 14.483470
130  1 0.0000  1.305142  6.252401 19.914771
131  1 0.0000  1.305142  6.252401 25.346072
132  1 0.0000  1.305142  6.252401 30.777373
133  1 0.0000 -1.152341 10.508887  3.620867
134  1 0.0000 -1.152341 10.508887  9.052169
135  1 0.0000 -1.152341 10.508887 14.483470
136  1 0.0000 -1.152341 10.508887 19.914771
137  1 0.0000 -1.152341 10.508887 25.346072
138  1 0.0000 -1.152341 10.508887 30.777373
139  1 0.0000 -3.609823 14.765373  3.620867
140  1 0.0000 -3.609823 14.765373  9.052169
141  1 0.0000 -3.609823 14.765373 14.483470
142  1 0.0000 -3.609823 14.765373 19.914771
143  1 0.0000 -3.609823 14.765373 25.346072
144  1 0.0000 -3.609823 14.765373 30.777373
145  1 0.0000  8.677590  1.995915  3.620867
146  1 0.0000  8.677590  1.995915  9.052169
147  1 0.0000  8.677590  1.995915 14.483470
148  1 0.0000  8.677590  1.995915 19.914771
149  1 0.0000  8.677590  1.995915 25.346072
150  1 0.0000  8.677590  1.995915 30.777373
151  1 0.0000  6.220108  6.252401  3.620867
152  1 0.0000  6.220108  6.252401  9.052169
153  1 0.0000  6.220108  6.252401 14.483470
154  1 0.0000  6.220108  6.252401 19.914771
155  1 0.0000  6.220108  6.252401 25.346072
156  1 0.0000  6.220108  6.252401 30.777373
157  1 0.0000  3.762625 10.508887  3.620867
158  1 0.0000  3.762625 10.508887  9.052169
159  1 0.0000  3.762625 10.508887 14.483470
160  1 0.0000  3.762625 10.508887 19.914771
161  1 0.0000  3.762625 10.508887 25.346072
162  1 0.0000  3.762625 10.508887 30.777373
163  1 0.0000  1.305143 14.765373  3.620867
164  1 0.0000  1.305143 14.765373  9.052169
165  1 0.0000  1.305143 14.765373 14.483470
166  1 0.0000  1.305143 14.765373 19.914771
167  1 0.0000  1.305143 14.765373 25.346072
168  1 0.0000  1.305143 14.765373 30.777373
169  1 0.0000 13.592556  1.995915  3.620867
170  1 0.0000 13.592556  1.995915  9.052169
171  1 0.0000 13.592556  1.995915 14.483470
172  1 0.0000 13.592556  1.995915 19.914771
173  1 0.0000 13.592556  1.995915 25.346072
174  1 0.0000 13.592556  1.995915 30.777373
175  1 0.0000 11.135074  6.252401  3.620867
176  1 0.0000 11.135074  6.252401  9.052169
177  1 0.0000 11.135074  6.252401 14.483470
178  1 0.0000 11.135074  6.252401 19.914771
179  1 0.0000 11.135074  6.252401 25.346072
180  1 0.0000 11.135074  6.252401 30.777373
181  1 0.0000  8.677591 10.508887  3.620867
182  1 0.0000  8.677591 10.508887  9.052169
183  1 0.0000  8.677591 10.508887 14.483470
184  1 0.0000  8.677591 10.508887 19.914771
185  1 0.0000  8.677591 10.508887 25.346072
186  1 0.0000  8.677591 10.508887 30.777373
187  1 0.0000  6.220109 14.765373  3.620867
188  1 0.0000  6.220109 14.765373  9.052169
189  1 0.0000  6.220109 14.765373 14.483470
190  1 0.0000  6.220109 14.765373 19.914771
191  1 0.0000  6.220109 14.765373 25.346072
192  1 0.0000  6.220109 14.765373 30.777373
193  1 0.0000  2.304684  0.000000  1.810434
194  1 0.0000  2.304684  0.000000  7.241735
195  1 0.0000  2.304684  0.000000 12.673036
196  1 0.0000  2.304684  0.000000 18.104337
197  1 0.0000  2.304684  0.000000 23.535638
198  1 0.0000  2.304684  0.000000 28.966939
199  1 0.0000 -0.152799  4.256486  1.810434
200  1 0.0000 -0.152799  4.256486  7.241735
201  1 0.0000 -0.152799  4.256486 12.673036
202  1 0.0000 -0.152799  4.256486 18.104337
203  1 0.0000 -0.152799  4.256486 23.535638
204  1 0.0000 -0.152799  4.256486 28.966939
205  1 0.0000 -2.610281  8.512972  1.810434
206  1 0.0000 -2.610281  8.512972  7.241735
207  1 0.0000 -2.610281  8.512972 12.673036
208  1 0.0000 -2.610281  8.512972 18.104337
209  1 0.0000 -2.610281  8.512972 23.535638
210  1 0.0000 -2.610281  8.512972 28.966939
211  1 0.0000 -5.067764 12.769458  1.810434
212  1 0.0000 -5.067764 12.769458  7.241735
213  1 0.0000 -5.067764 12.769458 12.673036
214  1 0.0000 -5.067764 12.769458 18.104337
215  1 0.0000 -5.067764 12.769458 23.535638
216  1 0.0000 -5.067764 12.769458 28.966939
217  1 0.0000  7.219650  0.000000  1.810434
218  1 0.0000  7.219650  0.000000  7.241735
219  1 0.0000  7.219650  0.000000 12.673036
220  1 0.0000  7.219650  0.000000 18.104337
221  1 0.0000  7.219650  0.000000 23.535638
222  1 0.0000  7.219650  0.000000 28.966939
223  1 0.0000  4.762167  4.256486  1.810434
224  1 0.0000  4.762167  4.256486  7.241735
225  1 0.0000  4.762167  4.256486 12.673036
226  1 0.0000  4.762167  4.256486 18.104337
227  1 0.0000  4.762167  4.256486 23.535638
228  1 0.0000  4.762167  4.256486 28.966939
229  1 0.0000  2.304685  8.512972  1.810434
230  1 0.0000  2.304685  8.512972  7.241735
231  1 0.0000  2.304685  8.512972 12.673036
232  1 0.0000  2.304685  8.512972 18.104337
233  1 0.0000  2.304685  8.512972 23.535638
234  1 0.0000  2.304685  8.512972 28.966939
235  1 0.0000 -0.152798 12.769458  1.810434
236  1 0.0000 -0.152798 12.769458  7.241735
237  1 0.0000 -0.152798 12.769458 12.673036
238  1 0.0000 -0.152798 12.769458 18.104337
239  1 0.0000 -0.152798 12.769458 23.535638
240  1 0.0000 -0.152798 12.769458 28.966939
241  1 0.0000 12.134616  0.000000  1.810434
242  1 0.0000 12.134616  0.000000  7.241735
243  1 0.0000 12.134616  0.000000 12.673036
244  1 0.0000 12.134616  0.000000 18.104337
245  1 0.0000 12.134616  0.000000 23.535638
246  1 0.0000 12.134616  0.000000 28.966939
247  1 0.0000  9.677133  4.256486  1.810434
248  1 0.0000  9.677133  4.256486  7.241735
249  1 0.0000  9.677133  4.256486 12.673036
250  1 0.0000  9.677133  4.256486 18.104337
251  1 0.0000  9.677133  4.256486 23.535638
252  1 0.0000  9.677133  4.256486 28.966939
253  1 0.0000  7.219651  8.512972  1.810434
254  1 0.0000  7.219651  8.512972  7.241735
255  1 0.0000  7.219651  8.512972 12.673036
256  1 0.0000  7.219651  8.512972 18.104337
257  1 0.0000  7.219651  8.512972 23.535638
258  1 0.0000  7.219651  8.512972 28.966939
259  1 0.0000  4.762168 12.769458  1.810434
260  1 0.0000  4.762168 12.769458  7.241735
261  1 0.0000  4.762168 12.769458 12.673036
262  1 0.0000  4.762168 12.769458 18.104337
263  1 0.0000  4.762168 12.769458 23.535638
264  1 0.0000  4.762168 12.769458 28.966939
265  1 0.0000 17.049582  0.000000  1.810434
266  1 0.0000 17.049582  0.000000  7.241735
267  1 0.0000 17.049582  0.000000 12.673036
268  1 0.0000 17.049582  0.000000 18.104337
269  1 0.0000 17.049582  0.000000 23.535638
270  1 0.0000 17.049582  0.000000 28.966939
271  1 0.0000 14.592099  4.256486  1.810434
272  1 0.0000 14.592099  4.256486  7.241735
273  1 0.0000 14.592099  4.256486 12.673036
274  1 0.0000 14.592099  4.256486 18.104337
275  1 0.0000 14.592099  4.256486 23.535638
276  1 0.0000 14.592099  4.256486 28.966939
277  1 0.0000 12.134617  8.512972  1.810434
278  1 0.0000 12.134617  8.512972  7.241735
279  1 0.0000 12.134617  8.512972 12.673036
280  1 0.0000 12.134617  8.512972 18.104337
281  1 0.0000 12.134617  8.512972 23.535638
282  1 0.0000 12.134617  8.512972 28.966939
283  1 0.0000  9.677134 12.769458  1.810434
284  1 0.0000  9.677134 12.769458  7.241735
285  1 0.0000  9.677134 12.769458 12.673036
286  1 0.0000  9.677134 12.769458 18.104337
287  1 0.0000  9.677134 12.769458 23.535638
288  1 0.0000  9.677134 12.769458 28.966939
289  2 0.0000  0.307313  1.759607  4.262979
290  2 0.0000  0.307313  1.759607  9.694280
291  2 0.0000  0.307313  1.759607 15.125582
292  2 0.0000  0.307313  1.759607 20.556883
293  2 0.0000  0.307313  1.759607 25.988184
294  2 0.0000  0.307313  1.759607 31.419485
295  2 0.0000 -2.150169  6.016093  4.262979
296  2 0.0000 -2.150169  6.016093  9.694280
297  2 0.0000 -2.150169  6.016093 15.125582
298  2 0.0000 -2.150169  6.016093 20.556883
299  2 0.0000 -2.150169  6.016093 25.988184
300  2 0.0000 -2.150169  6.016093 31.419485
301  2 0.0000 -4.607652 10.272579  4.262979
302  2 0.0000 -4.607652 10.272579  9.694280
303  2 0.0000 -4.607652 10.272579 15.125582
304  2 0.0000 -4.607652 10.272579 20.556883
305  2 0.0000 -4.607652 10.272579 25.988184
306  2 0.0000 -4.607652 10.272579 31.419485
307  2 0.0000 -7.065134 14.529065  4.262979
308  2 0.0000 -7.065134 14.529065  9.694280
309  2 0.0000 -7.065134 14.529065 15.125582
310  2 0.0000 -7.065134 14.529065 20.556883
311  2 0.0000 -7.065134 14.529065 25.988184
312  2 0.0000 -7.065134 14.529065 31.419485
313  2 0.0000  5.222279  1.759607  4.262979
314  2 0.0000  5.222279  1.759607  9.694280
315  2 0.0000  5.222279  1.759607 15.125582
316  2 0.0000  5.222279  1.759607 20.556883
317  2 0.0000  5.222279  1.759607 25.988184
318  2 0.0000  5.222279  1.759607 31.419485
319  2 0.0000  2.764797  6.016093  4.262979
320  2 0.0000  2.764797  6.016093  9.694280
321  2 0.0000  2.764797  6.016093 15.125582
322  2 0.0000  2.764797  6.016093 20.556883
323  2 0.0000  2.764797  6.016093 25.988184
324  2 0.0000  2.764797  6.016093 31.419485
325  2 0.0000  0.307314 10.272579  4.262979
326  2 0.0000  0.307314 10.272579  9.694280
327  2 0.0000  0.307314 10.272579 15.125582
328  2 0.0000  0.307314 10.272579 20.556883
329  2 0.0000  0.307314 10.272579 25.988184
330  2 0.0000  0.307314 10.272579 31.419485
331  2 0.0000 -2.150168 14.529065  4.262979
332  2 0.0000 -2.150168 14.529065  9.694280
333  2 0.0000 -2.150168 14.529065 15.125582
334  2 0.0000 -2.150168 14.529065 20.556883
335  2 0.0000 -2.150168 14.529065 25.988184
336  2 0.0000 -2.150168 14.529065 31.419485
337  2 0.0000 10.137245  1.759607  4.262979
338  2 0.0000 10.137245  1.759607  9.694280
339  2 0.0000 10.137245  1.759607 15.125582
340  2 0.0000 10.137245  1.759607 20.556883
341  2 0.0000 10.137245  1.759607 25.988184
342  2 0.0000 10.137245  1.759607 31.419485
343  2 0.0000  7.679763  6.016093  4.262979
344  2 0.0000  7.679763  6.016093  9.694280
345  2 0.0000  7.679763  6.016093 15.125582
346  2 0.0000  7.679763  6.016093 20.556883
347  2 0.0000  7.679763  6.016093 25.988184
348  2 0.0000  7.679763  6.016093 31.419485
349  2 0.0000  5.222280 10.272579  4.262979
350  2 0.0000  5.222280 10.272579  9.694280
351  2 0.0000  5.222280 10.272579 15.125582
352  2 0.0000  5.222280 10.272579 20.556883
353  2 0.0000  5.222280 10.272579 25.988184
354  2 0.0000  5.222280 10.272579 31.419485
355  2 0.0000  2.764798 14.529065  4.262979
356  2 0.0000  2.764798 14.529065  9.694280
357  2 0.0000  2.764798 14.529065 15.125582
358  2 0.0000  2.764798 14.529065 20.556883
359  2 0.0000  2.764798 14.529065 25.988184
360  2 0.0000  2.764798 14.529065 31.419485
361  2 0.0000 15.052211  1.759607  4.262979
362  2 0.0000 15.052211  1.759607  9.694280
363  2 0.0000 15.052211  1.759607 15.125582
364  2 0.0000 15.052211  1.759607 20.556883
365  2 0.0000 15.052211  1.759607 25.988184
366  2 0.0000 15.052211  1.759607 31.419485
367  2 0.0000 12.594729  6.016093  4.262979
368  2 0.0000 12.594729  6.016093  9.694280
369  2 0.0000 12.594729  6.016093 15.125582
370  2 0.0000 12.594729  6.016093 20.556883
371  2 0.0000 12.594729  6.016093 25.988184
372  2 0.0000 12.594729  6.016093 31.419485
373  2 0.0000 10.137246 10.272579  4.262979
374  2 0.0000 10.137246 10.272579  9.694280
375  2 0.0000 10.137246 10.272579 15.125582
376  2 0.0000 10.137246 10.272579 20.556883
377  2 0.0000 10.137246 10.272579 25.988184
378  2 0.0000 10.137246 10.272579 31.419485
379  2 0.0000  7.679764 14.529065  4.262979
380  2 0.0000  7.679764 14.529065  9.694280
381  2 0.0000  7.679764 14.529065 15.125582
382  2 0.0000  7.679764 14.529065 20.556883
383  2 0.0000  7.679764 14.529065 25.988184
384  2 0.0000  7.679764 14.529065 31.419485
385  2 0.0000  0.779965  3.642819  0.642115
386  2 0.0000  0.779965  3.642819  6.073417
387  2 0.0000  0.779965  3.642819 11.504718
388  2 0.0000  0.779965  3.642819 16.936019
389  2 0.0000  0.779965  3.642819 22.367320
390  2 0.0000  0.779965  3.642819 27.798621
391  2 0.0000 -1.677517  7.899305  0.642115
392  2 0.0000 -1.677517  7.899305  6.073417
393  2 0.0000 -1.677517  7.899305 11.504718
394  2 0.0000 -1.677517  7.899305 16.936019
395  2 0.0000 -1.677517  7.899305 22.367320
396  2 0.0000 -1.677517  7.899305 27.798621
397  2 0.0000 -4.135000 12.155791  0.642115
398  2 0.0000 -4.135000 12.155791  6.073417
399  2 0.0000 -4.135000 12.155791 11.504718
400  2 0.0000 -4.135000 12.155791 16.936019
401  2 0.0000 -4.135000 12.155791 22.367320
402  2 0.0000 -4.135000 12.155791 27.798621
403  2 0.0000 -6.592482 16.412277  0.642115
404  2 0.0000 -6.592482 16.412277  6.073417
405  2 0.0000 -6.592482 16.412277 11.504718
406  2 0.0000 -6.592482 16.412277 16.936019
407  2 0.0000 -6.592482 16.412277 22.367320
408  2 0.0000 -6.592482 16.412277 27.798621
409  2 0.0000  5.694931  3.642819  0.642115
410  2 0.0000  5.694931  3.642819  6.073417
411  2 0.0000  5.694931  3.642819 11.504718
412  2 0.0000  5.694931  3.642819 16.936019
413  2 0.0000  5.694931  3.642819 22.367320
414  2 0.0000  5.694931  3.642819 27.798621
415  2 0.0000  3.237449  7.899305  0.642115
416  2 0.0000  3.237449  7.899305  6.073417
417  2 0.0000  3.237449  7.899305 11.504718
418  2 0.0000  3.237449  7.899305 16.936019
419  2 0.0000  3.237449  7.899305 22.367320
420  2 0.0000  3.237449  7.899305 27.798621
421  2 0.0000  0.779966 12.155791  0.642115
422  2 0.0000  0.779966 12.155791  6.073417
423  2 0.0000  0.779966 12.155791 11.504718
424  2 0.0000  0.779966 12.155791 16.936019
425  2 0.0000  0.779966 12.155791 22.367320
426  2 0.0000  0.779966 12.155791 27.798621
427  2 0.0000 -1.677516 16.412277  0.642115
428  2 0.0000 -1.677516 16.412277  6.073417
429  2 0.0000 -1.677516 16.412277 11.504718
430  2 0.0000 -1.677516 16.412277 16.936019
431  2 0.0000 -1.677516 16.412277 22.367320
432  2 0.0000 -1.677516 16.412277 27.798621
433  2 0.0000 10.609897  3.642819  0.642115
434  2 0.0000 10.609897  3.642819  6.073417
435  2 0.0000 10.609897  3.642819 11.504718
436  2 0.0000 10.609897  3.642819 16.936019
437  2 0.0000 10.609897  3.642819 22.367320
438  2 0.0000 10.609897  3.642819 27.798621
439  2 0.0000  8.152415  7.899305  0.642115
440  2 0.0000  8.152415  7.899305  6.073417
441  2 0.0000  8.152415  7.899305 11.504718
442  2 0.0000  8.152415  7.899305 16.936019
443  2 0.0000  8.152415  7.899305 22.367320
444  2 0.0000  8.152415  7.899305 27.798621
445  2 0.0000  5.694932 12.155791  0.642115
446  2 0.0000  5.694932 12.155791  6.073417
447  2 0.0000  5.694932 12.155791 11.504718
448  2 0.0000  5.694932 12.155791 16.936019
449  2 0.0000  5.694932 12.155791 22.367320
450  2 0.0000  5.694932 12.155791 27.798621
451  2 0.0000  3.237450 16.412277  0.642115
452  2 0.0000  3.237450 16.412277  6.073417
453  2 0.0000  3.237450 16.412277 11.504718
454  2 0.0000  3.237450 16.412277 16.936019
455  2 0.0000  3.237450 16.412277 22.367320
456  2 0.0000  3.237450 16.412277 27.798621
457  2 0.0000 15.524863  3.642819  0.642115
458  2 0.0000 15.524863  3.642819  6.073417
459  2 0.0000 15.524863  3.642819 11.504718
460  2 0.0000 15.524863  3.642819 16.936019
461  2 0.0000 15.524863  3.642819 22.367320
462  2 0.0000 15.524863  3.642819 27.798621
463  2 0.0000 13.067381  7.899305  0.642115
464  2 0.0000 13.067381  7.899305  6.073417
465  2 0.0000 13.067381  7.899305 11.504718
466  2 0.0000 13.067381  7.899305 16.936019
467  2 0.0000 13.067381  7.899305 22.367320
468  2 0.0000 13.067381  7.899305 27.798621
469  2 0.0000 10.609898 12.155791  0.642115
470  2 0.0000 10.609898 12.155791  6.073417
471  2 0.0000 10.609898 12.155791 11.504718
472  2 0.0000 10.609898 12.155791 16.936019
473  2 0.0000 10.609898 12.155791 22.367320
474  2 0.0000 10.609898 12.155791 27.798621
475  2 0.0000  8.152416 16.412277  0.642115
476  2 0.0000  8.152416 16.412277  6.073417
477  2 0.0000  8.152416 16.412277 11.504718
478  2 0.0000  8.152416 16.412277 16.936019
479  2 0.0000  8.152416 16.412277 22.367320
480  2 0.0000  8.152416 16.412277 27.798621
481  2 0.0000 -1.087270  3.110542  2.452547
482  2 0.0000 -1.087270  3.110542  7.883849
483  2 0.0000 -1.087270  3.110542 13.315150
484  2 0.0000 -1.087270  3.110542 18.746451
485  2 0.0000 -1.087270  3.110542 24.177752
486  2 0.0000 -1.087270  3.110542 29.609053
487  2 0.0000 -3.544753  7.367028  2.452547
488  2 0.0000 -3.544753  7.367028  7.883849
489  2 0.0000 -3.544753  7.367028 13.315150
490  2 0.0000 -3.544753  7.367028 18.746451
491  2 0.0000 -3.544753  7.367028 24.177752
492  2 0.0000 -3.544753  7.367028 29.609053
493  2 0.0000 -6.002235 11.623514  2.452547
494  2 0.0000 -6.002235 11.623514  7.883849
495  2 0.0000 -6.002235 11.623514 13.315150
496  2 0.0000 -6.002235 11.623514 18.746451
497  2 0.0000 -6.002235 11.623514 24.177752
498  2 0.0000 -6.002235 11.623514 29.609053
499  2 0.0000 -8.459718 15.880000  2.452547
500  2 0.0000 -8.459718 15.880000  7.883849
501  2 0.0000 -8.459718 15.880000 13.315150
502  2 0.0000 -8.459718 15.880000 18.746451
503  2 0.0000 -8.459718 15.880000 24.177752
504  2 0.0000 -8.459718 15.880000 29.609053
505  2 0.0000  3.827696  3.110542  2.452547
506  2 0.0000  3.827696  3.110542  7.883849
507  2 0.0000  3.827696  3.110542 13.315150
508  2 0.0000  3.827696  3.110542 18.746451
509  2 0.0000  3.827696  3.110542 24.177752
510  2 0.0000  3.827696  3.110542 29.609053
511  2 0.0000  1.370213  7.367028  2.452547
512  2 0.0000  1.370213  7.367028  7.883849
513  2 0.0000  1.370213  7.367028 13.315150
514  2 0.0000  1.370213  7.367028 18.746451
515  2 0.0000  1.370213  7.367028 24.177752
516  2 0.0000  1.370213  7.367028 29.609053
517  2 0.0000 -1.087269 11.623514  2.452547
518  2 0.0000 -1.087269 11.623514  7.883849
519  2 0.0000 -1.087269 11.623514 13.315150
520  2 0.0000 -1.087269 11.623514 18.746451
521  2 0.0000 -1.087269 11.623514 24.177752
522  2 0.0000 -1.087269 11.623514 29.609053
523  2 0.0000 -3.544752 15.880000  2.452547
524  2 0.0000 -3.544752 15.880000  7.883849
525  2 0.0000 -3.544752 15.880000 13.315150
526  2 0.0000 -3.544752 15.880000 18.746451
527  2 0.0000 -3.544752 15.880000 24.177752
528  2 0.0000 -3.544752 15.880000 29.609053
529  2 0.0000  8.742662  3.110542  2.452547
530  2 0.0000  8.742662  3.110542  7.883849
531  2 0.0000  8.742662  3.110542 13.315150
532  2 0.0000  8.742662  3.110542 18.746451
533  2 0.0000  8.742662  3.110542 24.177752
534  2 0.0000  8.742662  3.110542 29.609053
535  2 0.0000  6.285179  7.367028  2.452547
536  2 0.0000  6.285179  7.367028  7.883849
537  2 0.0000  6.285179  7.367028 13.315150
538  2 0.0000  6.285179  7.367028 18.746451
539  2 0.0000  6.285179  7.367028 24.177752
540  2 0.0000  6.285179  7.367028 29.609053
541  2 0.0000  3.827697 11.623514  2.452547
542  2 0.0000  3.827697 11.623514  7.883849
543  2 0.0000  3.827697 11.623514 13.315150
544  2 0.0000  3.827697 11.623514 18.746451
545  2 0.0000  3.827697 11.623514 24.177752
546  2 0.0000  3.827697 11.623514 29.609053
547  2 0.0000  1.370214 15.880000  2.452547
548  2 0.0000  1.370214 15.880000  7.883849
549  2 0.0000  1.370214 15.880000 13.315150
550  2 0.0000  1.370214 15.880000 18.746451
551  2 0.0000  1.370214 15.880000 24.177752
552  2 0.0000  1.370214 15.880000 29.609053
553  2 0.0000 13.657628  3.110542  2.452547
554  2 0.0000 13.657628  3.110542  7.883849
555  2 0.0000 13.657628  3.110542 13.315150
556  2 0.0000 13.657628  3.110542 18.746451
557  2 0.0000 13.657628  3.110542 24.177752
558  2 0.0000 13.657628  3.110542 29.609053
559  2 0.0000 11.200145  7.367028  2.452547
560  2 0.0000 11.200145  7.367028  7.883849
561  2 0.0000 11.200145  7.367028 13.315150
562  2 0.0000 11.200145  7.367028 18.746451
563  2 0.0000 11.200145  7.367028 24.177752
564  2 0.0000 11.200145  7.367028 29.609053
565  2 0.0000  8.742663 11.623514  2.452547
566  2 0.0000  8.742663 11.623514  7.883849
567  2 0.0000  8.742663 11.623514 13.315150
568  2 0.0000  8.742663 11.623514 18.746451
569  2 0.0000  8.742663 11.623514 24.177752
570  2 0.0000  8.742663 11.623514 29.609053
571  2 0.0000  6.285180 15.880000  2.452547
572  2 0.0000  6.285180 15.880000  7.883849
573  2 0.0000  6.285180 15.880000 13.315150
574  2 0.0000  6.285180 15.880000 18.746451
575  2 0.0000  6.285180 15.880000 24.177752
576  2 0.0000  6.285180 15.880000 29.609053
577  2 0.0000  1.370208  1.145944  1.168322
578  2 0.0000  1.370208  1.145944  6.599623
579  2 0.0000  1.370208  1.145944 12.030924
580  2 0.0000  1.370208  1.145944 17.462225
581  2 0.0000  1.370208  1.145944 22.893526
582  2 0.0000  1.370208  1.145944 28.324828
583  2 0.0000 -1.087275  5.402431  1.168322
584  2 0.0000 -1.087275  5.402431  6.599623
585  2 0.0000 -1.087275  5.402431 12.030924
586  2 0.0000 -1.087275  5.402431 17.462225
587  2 0.0000 -1.087275  5.402431 22.893526
588  2 0.0000 -1.087275  5.402431 28.324828
589  2 0.0000 -3.544757  9.658917  1.168322
590  2 0.0000 -3.544757  9.658917  6.599623
591  2 0.0000 -3.544757  9.658917 12.030924
592  2 0.0000 -3.544757  9.658917 17.462225
593  2 0.0000 -3.544757  9.658917 22.893526
594  2 0.0000 -3.544757  9.658917 28.324828
595  2 0.0000 -6.002240 13.915403  1.168322
596  2 0.0000 -6.002240 13.915403  6.599623
597  2 0.0000 -6.002240 13.915403 12.030924
598  2 0.0000 -6.002240 13.915403 17.462225
599  2 0.0000 -6.002240 13.915403 22.893526
600  2 0.0000 -6.002240 13.915403 28.324828
601  2 0.0000  6.285174  1.145944  1.168322
602  2 0.0000  6.285174  1.145944  6.599623
603  2 0.0000  6.285174  1.145944 12.030924
604  2 0.0000  6.285174  1.145944 17.462225
605  2 0.0000  6.285174  1.145944 22.893526
606  2 0.0000  6.285174  1.145944 28.324828
607  2 0.0000  3.827691  5.402431  1.168322
608  2 0.0000  3.827691  5.402431  6.599623
609  2 0.0000  3.827691  5.402431 12.030924
610  2 0.0000  3.827691  5.402431 17.462225
611  2 0.0000  3.827691  5.402431 22.893526
612  2 0.0000  3.827691  5.402431 28.324828
613  2 0.0000  1.370209  9.658917  1.168322
614  2 0.0000  1.370209  9.658917  6.599623
615  2 0.0000  1.370209  9.658917 12.030924
616  2 0.0000  1.370209  9.658917 17.462225
617  2 0.0000  1.370209  9.658917 22.893526
618  2 0.0000  1.370209  9.658917 28.324828
619  2 0.0000 -1.087274 13.915403  1.168322
620  2 0.0000 -1.087274 13.915403  6.599623
621  2 0.0000 -1.087274 13.915403 12.030924
622  2 0.0000 -1.087274 13.915403 17.462225
623  2 0.0000 -1.087274 13.915403 22.893526
624  2 0.0000 -1.087274 13.915403 28.324828
625  2 0.0000 11.200140  1.145944  1.168322
626  2 0.0000 11.200140  1.145944  6.599623
627  2 0.0000 11.200140  1.145944 12.030924
628  2 0.0000 11.200140  1.145944 17.462225
629  2 0.0000 11.200140  1.145944 22.893526
630  2 0.0000 11.200140  1.145944 28.324828
631  2 0.0000  8.742657  5.402431  1.168322
632  2 0.0000  8.742657  5.402431  6.599623
633  2 0.0000  8.742657  5.402431 12.030924
634  2 0.0000  8.742657  5.402431 17.462225
635  2 0.0000  8.742657  5.402431 22.893526
636  2 0.0000  8.742657  5.402431 28.324828
637  2 0.0000  6.285175  9.658917  1.168322
638  2 0.0000  6.285175  9.658917  6.599623
639  2 0.0000  6.285175  9.658917 12.030924
640  2 0.0000  6.285175  9.658917 17.462225
641  2 0.0000  6.285175  9.658917 22.893526
642  2 0.0000  6.285175  9.658917 28.324828
643  2 0.0000  3.827692 13.915403  1.168322
644  2 0.0000  3.827692 13.915403  6.599623
645  2 0.0000  3.827692 13.915403 12.030924
646  2 0.0000  3.827692 13.915403 17.462225
647  2 0.0000  3.827692 13.915403 22.893526
648  2 0.0000  3.827692 13.915403 28.324828
649  2 0.0000 16.115106  1.145944  1.168322
650  2 0.0000 16.115106  1.145944  6.599623
651  2 0.0000 16.115106  1.145944 12.030924
652  2 0.0000 16.115106  1.145944 17.462225
653  2 0.0000 16.115106  1.145944 22.893526
654  2 0.0000 16.115106  1.145944 28.324828
655  2 0.0000 13.657623  5.402431  1.168322
656  2 0.0000 13.657623  5.402431  6.599623
657  2 0.0000 13.657623  5.402431 12.030924
658  2 0.0000 13.657623  5.402431 17.462225
659  2 0.0000 13.657623  5.402431 22.893526
660  2 0.0000 13.657623  5.402431 28.324828
661  2 0.0000 11.200141  9.658917  1.168322
662  2 0.0000 11.200141  9.658917  6.599623
663  2 0.0000 11.200141  9.658917 12.030924
664  2 0.0000 11.200141  9.658917 17.462225
665  2 0.0000 11.200141  9.658917 22.893526
666  2 0.0000 11.200141  9.658917 28.324828
667  2 0.0000  8.742658 13.915403  1.168322
668  2 0.0000  8.742658 13.915403  6.599623
669  2 0.0000  8.742658 13.915403 12.030924
670  2 0.0000  8.742658 13.915403 17.462225
671  2 0.0000  8.742658 13.915403 22.893526
672  2 0.0000  8.742658 13.915403 28.324828
673  2 0.0000  3.237443  0.613667  2.978754
674  2 0.0000  3.237443  0.613667  8.410055
675  2 0.0000  3.237443  0.613667 13.841356
676  2 0.0000  3.237443  0.613667 19.272657