Generated by pymatgen.io.lammps.data.LammpsData

3072  atoms

   3  atom types

0.000000 14.978448  xlo xhi
0.000000 45.386972  ylo yhi
0.000000 71.413578  zlo zhi

Masses

1  40.0780
2  55.8450
3  74.9216

Atoms

1     1 0.0000  0.936153  0.756022  9.913966
2     1 0.0000  0.936153  0.756022 21.816229
3     1 0.0000  0.936153  0.756022 33.718492
4     1 0.0000  0.936153  0.756022 45.620755
5     1 0.0000  0.936153  0.756022 57.523018
6     1 0.0000  0.936153  0.756022 69.425281
7     1 0.0000  0.936153 12.102765  9.913966
8     1 0.0000  0.936153 12.102765 21.816229
9     1 0.0000  0.936153 12.102765 33.718492
10    1 0.0000  0.936153 12.102765 45.620755
11    1 0.0000  0.936153 12.102765 57.523018
12    1 0.0000  0.936153 12.102765 69.425281
13    1 0.0000  0.936153 23.449508  9.913966
14    1 0.0000  0.936153 23.449508 21.816229
15    1 0.0000  0.936153 23.449508 33.718492
16    1 0.0000  0.936153 23.449508 45.620755
17    1 0.0000  0.936153 23.449508 57.523018
18    1 0.0000  0.936153 23.449508 69.425281
19    1 0.0000  0.936153 34.796251  9.913966
20    1 0.0000  0.936153 34.796251 21.816229
21    1 0.0000  0.936153 34.796251 33.718492
22    1 0.0000  0.936153 34.796251 45.620755
23    1 0.0000  0.936153 34.796251 57.523018
24    1 0.0000  0.936153 34.796251 69.425281
25    1 0.0000  4.680765  0.756022  9.913966
26    1 0.0000  4.680765  0.756022 21.816229
27    1 0.0000  4.680765  0.756022 33.718492
28    1 0.0000  4.680765  0.756022 45.620755
29    1 0.0000  4.680765  0.756022 57.523018
30    1 0.0000  4.680765  0.756022 69.425281
31    1 0.0000  4.680765 12.102765  9.913966
32    1 0.0000  4.680765 12.102765 21.816229
33    1 0.0000  4.680765 12.102765 33.718492
34    1 0.0000  4.680765 12.102765 45.620755
35    1 0.0000  4.680765 12.102765 57.523018
36    1 0.0000  4.680765 12.102765 69.425281
37    1 0.0000  4.680765 23.449508  9.913966
38    1 0.0000  4.680765 23.449508 21.816229
39    1 0.0000  4.680765 23.449508 33.718492
40    1 0.0000  4.680765 23.449508 45.620755
41    1 0.0000  4.680765 23.449508 57.523018
42    1 0.0000  4.680765 23.449508 69.425281
43    1 0.0000  4.680765 34.796251  9.913966
44    1 0.0000  4.680765 34.796251 21.816229
45    1 0.0000  4.680765 34.796251 33.718492
46    1 0.0000  4.680765 34.796251 45.620755
47    1 0.0000  4.680765 34.796251 57.523018
48    1 0.0000  4.680765 34.796251 69.425281
49    1 0.0000  8.425377  0.756022  9.913966
50    1 0.0000  8.425377  0.756022 21.816229
51    1 0.0000  8.425377  0.756022 33.718492
52    1 0.0000  8.425377  0.756022 45.620755
53    1 0.0000  8.425377  0.756022 57.523018
54    1 0.0000  8.425377  0.756022 69.425281
55    1 0.0000  8.425377 12.102765  9.913966
56    1 0.0000  8.425377 12.102765 21.816229
57    1 0.0000  8.425377 12.102765 33.718492
58    1 0.0000  8.425377 12.102765 45.620755
59    1 0.0000  8.425377 12.102765 57.523018
60    1 0.0000  8.425377 12.102765 69.425281
61    1 0.0000  8.425377 23.449508  9.913966
62    1 0.0000  8.425377 23.449508 21.816229
63    1 0.0000  8.425377 23.449508 33.718492
64    1 0.0000  8.425377 23.449508 45.620755
65    1 0.0000  8.425377 23.449508 57.523018
66    1 0.0000  8.425377 23.449508 69.425281
67    1 0.0000  8.425377 34.796251  9.913966
68    1 0.0000  8.425377 34.796251 21.816229
69    1 0.0000  8.425377 34.796251 33.718492
70    1 0.0000  8.425377 34.796251 45.620755
71    1 0.0000  8.425377 34.796251 57.523018
72    1 0.0000  8.425377 34.796251 69.425281
73    1 0.0000 12.169989  0.756022  9.913966
74    1 0.0000 12.169989  0.756022 21.816229
75    1 0.0000 12.169989  0.756022 33.718492
76    1 0.0000 12.169989  0.756022 45.620755
77    1 0.0000 12.169989  0.756022 57.523018
78    1 0.0000 12.169989  0.756022 69.425281
79    1 0.0000 12.169989 12.102765  9.913966
80    1 0.0000 12.169989 12.102765 21.816229
81    1 0.0000 12.169989 12.102765 33.718492
82    1 0.0000 12.169989 12.102765 45.620755
83    1 0.0000 12.169989 12.102765 57.523018
84    1 0.0000 12.169989 12.102765 69.425281
85    1 0.0000 12.169989 23.449508  9.913966
86    1 0.0000 12.169989 23.449508 21.816229
87    1 0.0000 12.169989 23.449508 33.718492
88    1 0.0000 12.169989 23.449508 45.620755
89    1 0.0000 12.169989 23.449508 57.523018
90    1 0.0000 12.169989 23.449508 69.425281
91    1 0.0000 12.169989 34.796251  9.913966
92    1 0.0000 12.169989 34.796251 21.816229
93    1 0.0000 12.169989 34.796251 33.718492
94    1 0.0000 12.169989 34.796251 45.620755
95    1 0.0000 12.169989 34.796251 57.523018
96    1 0.0000 12.169989 34.796251 69.425281
97    1 0.0000  2.808459 10.590721  1.988297
98    1 0.0000  2.808459 10.590721 13.890560
99    1 0.0000  2.808459 10.590721 25.792823
100   1 0.0000  2.808459 10.590721 37.695086
101   1 0.0000  2.808459 10.590721 49.597349
102   1 0.0000  2.808459 10.590721 61.499612
103   1 0.0000  2.808459 21.937464  1.988297
104   1 0.0000  2.808459 21.937464 13.890560
105   1 0.0000  2.808459 21.937464 25.792823
106   1 0.0000  2.808459 21.937464 37.695086
107   1 0.0000  2.808459 21.937464 49.597349
108   1 0.0000  2.808459 21.937464 61.499612
109   1 0.0000  2.808459 33.284207  1.988297
110   1 0.0000  2.808459 33.284207 13.890560
111   1 0.0000  2.808459 33.284207 25.792823
112   1 0.0000  2.808459 33.284207 37.695086
113   1 0.0000  2.808459 33.284207 49.597349
114   1 0.0000  2.808459 33.284207 61.499612
115   1 0.0000  2.808459 44.630950  1.988297
116   1 0.0000  2.808459 44.630950 13.890560
117   1 0.0000  2.808459 44.630950 25.792823
118   1 0.0000  2.808459 44.630950 37.695086
119   1 0.0000  2.808459 44.630950 49.597349
120   1 0.0000  2.808459 44.630950 61.499612
121   1 0.0000  6.553071 10.590721  1.988297
122   1 0.0000  6.553071 10.590721 13.890560
123   1 0.0000  6.553071 10.590721 25.792823
124   1 0.0000  6.553071 10.590721 37.695086
125   1 0.0000  6.553071 10.590721 49.597349
126   1 0.0000  6.553071 10.590721 61.499612
127   1 0.0000  6.553071 21.937464  1.988297
128   1 0.0000  6.553071 21.937464 13.890560
129   1 0.0000  6.553071 21.937464 25.792823
130   1 0.0000  6.553071 21.937464 37.695086
131   1 0.0000  6.553071 21.937464 49.597349
132   1 0.0000  6.553071 21.937464 61.499612
133   1 0.0000  6.553071 33.284207  1.988297
134   1 0.0000  6.553071 33.284207 13.890560
135   1 0.0000  6.553071 33.284207 25.792823
136   1 0.0000  6.553071 33.284207 37.695086
137   1 0.0000  6.553071 33.284207 49.597349
138   1 0.0000  6.553071 33.284207 61.499612
139   1 0.0000  6.553071 44.630950  1.988297
140   1 0.0000  6.553071 44.630950 13.890560
141   1 0.0000  6.553071 44.630950 25.792823
142   1 0.0000  6.553071 44.630950 37.695086
143   1 0.0000  6.553071 44.630950 49.597349
144   1 0.0000  6.553071 44.630950 61.499612
145   1 0.0000 10.297683 10.590721  1.988297
146   1 0.0000 10.297683 10.590721 13.890560
147   1 0.0000 10.297683 10.590721 25.792823
148   1 0.0000 10.297683 10.590721 37.695086
149   1 0.0000 10.297683 10.590721 49.597349
150   1 0.0000 10.297683 10.590721 61.499612
151   1 0.0000 10.297683 21.937464  1.988297
152   1 0.0000 10.297683 21.937464 13.890560
153   1 0.0000 10.297683 21.937464 25.792823
154   1 0.0000 10.297683 21.937464 37.695086
155   1 0.0000 10.297683 21.937464 49.597349
156   1 0.0000 10.297683 21.937464 61.499612
157   1 0.0000 10.297683 33.284207  1.988297
158   1 0.0000 10.297683 33.284207 13.890560
159   1 0.0000 10.297683 33.284207 25.792823
160   1 0.0000 10.297683 33.284207 37.695086
161   1 0.0000 10.297683 33.284207 49.597349
162   1 0.0000 10.297683 33.284207 61.499612
163   1 0.0000 10.297683 44.630950  1.988297
164   1 0.0000 10.297683 44.630950 13.890560
165   1 0.0000 10.297683 44.630950 25.792823
166   1 0.0000 10.297683 44.630950 37.695086
167   1 0.0000 10.297683 44.630950 49.597349
168   1 0.0000 10.297683 44.630950 61.499612
169   1 0.0000 14.042295 10.590721  1.988297
170   1 0.0000 14.042295 10.590721 13.890560
171   1 0.0000 14.042295 10.590721 25.792823
172   1 0.0000 14.042295 10.590721 37.695086
173   1 0.0000 14.042295 10.590721 49.597349
174   1 0.0000 14.042295 10.590721 61.499612
175   1 0.0000 14.042295 21.937464  1.988297
176   1 0.0000 14.042295 21.937464 13.890560
177   1 0.0000 14.042295 21.937464 25.792823
178   1 0.0000 14.042295 21.937464 37.695086
179   1 0.0000 14.042295 21.937464 49.597349
180   1 0.0000 14.042295 21.937464 61.499612
181   1 0.0000 14.042295 33.284207  1.988297
182   1 0.0000 14.042295 33.284207 13.890560
183   1 0.0000 14.042295 33.284207 25.792823
184   1 0.0000 14.042295 33.284207 37.695086
185   1 0.0000 14.042295 33.284207 49.597349
186   1 0.0000 14.042295 33.284207 61.499612
187   1 0.0000 14.042295 44.630950  1.988297
188   1 0.0000 14.042295 44.630950 13.890560
189   1 0.0000 14.042295 44.630950 25.792823
190   1 0.0000 14.042295 44.630950 37.695086
191   1 0.0000 14.042295 44.630950 49.597349
192   1 0.0000 14.042295 44.630950 61.499612
193   1 0.0000  2.808459  6.429394  7.939428
194   1 0.0000  2.808459  6.429394 19.841691
195   1 0.0000  2.808459  6.429394 31.743954
196   1 0.0000  2.808459  6.429394 43.646217
197   1 0.0000  2.808459  6.429394 55.548480
198   1 0.0000  2.808459  6.429394 67.450743
199   1 0.0000  2.808459 17.776137  7.939428
200   1 0.0000  2.808459 17.776137 19.841691
201   1 0.0000  2.808459 17.776137 31.743954
202   1 0.0000  2.808459 17.776137 43.646217
203   1 0.0000  2.808459 17.776137 55.548480
204   1 0.0000  2.808459 17.776137 67.450743
205   1 0.0000  2.808459 29.122880  7.939428
206   1 0.0000  2.808459 29.122880 19.841691
207   1 0.0000  2.808459 29.122880 31.743954
208   1 0.0000  2.808459 29.122880 43.646217
209   1 0.0000  2.808459 29.122880 55.548480
210   1 0.0000  2.808459 29.122880 67.450743
211   1 0.0000  2.808459 40.469623  7.939428
212   1 0.0000  2.808459 40.469623 19.841691
213   1 0.0000  2.808459 40.469623 31.743954
214   1 0.0000  2.808459 40.469623 43.646217
215   1 0.0000  2.808459 40.469623 55.548480
216   1 0.0000  2.808459 40.469623 67.450743
217   1 0.0000  6.553071  6.429394  7.939428
218   1 0.0000  6.553071  6.429394 19.841691
219   1 0.0000  6.553071  6.429394 31.743954
220   1 0.0000  6.553071  6.429394 43.646217
221   1 0.0000  6.553071  6.429394 55.548480
222   1 0.0000  6.553071  6.429394 67.450743
223   1 0.0000  6.553071 17.776137  7.939428
224   1 0.0000  6.553071 17.776137 19.841691
225   1 0.0000  6.553071 17.776137 31.743954
226   1 0.0000  6.553071 17.776137 43.646217
227   1 0.0000  6.553071 17.776137 55.548480
228   1 0.0000  6.553071 17.776137 67.450743
229   1 0.0000  6.553071 29.122880  7.939428
230   1 0.0000  6.553071 29.122880 19.841691
231   1 0.0000  6.553071 29.122880 31.743954
232   1 0.0000  6.553071 29.122880 43.646217
233   1 0.0000  6.553071 29.122880 55.548480
234   1 0.0000  6.553071 29.122880 67.450743
235   1 0.0000  6.553071 40.469623  7.939428
236   1 0.0000  6.553071 40.469623 19.841691
237   1 0.0000  6.553071 40.469623 31.743954
238   1 0.0000  6.553071 40.469623 43.646217
239   1 0.0000  6.553071 40.469623 55.548480
240   1 0.0000  6.553071 40.469623 67.450743
241   1 0.0000 10.297683  6.429394  7.939428
242   1 0.0000 10.297683  6.429394 19.841691
243   1 0.0000 10.297683  6.429394 31.743954
244   1 0.0000 10.297683  6.429394 43.646217
245   1 0.0000 10.297683  6.429394 55.548480
246   1 0.0000 10.297683  6.429394 67.450743
247   1 0.0000 10.297683 17.776137  7.939428
248   1 0.0000 10.297683 17.776137 19.841691
249   1 0.0000 10.297683 17.776137 31.743954
250   1 0.0000 10.297683 17.776137 43.646217
251   1 0.0000 10.297683 17.776137 55.548480
252   1 0.0000 10.297683 17.776137 67.450743
253   1 0.0000 10.297683 29.122880  7.939428
254   1 0.0000 10.297683 29.122880 19.841691
255   1 0.0000 10.297683 29.122880 31.743954
256   1 0.0000 10.297683 29.122880 43.646217
257   1 0.0000 10.297683 29.122880 55.548480
258   1 0.0000 10.297683 29.122880 67.450743
259   1 0.0000 10.297683 40.469623  7.939428
260   1 0.0000 10.297683 40.469623 19.841691
261   1 0.0000 10.297683 40.469623 31.743954
262   1 0.0000 10.297683 40.469623 43.646217
263   1 0.0000 10.297683 40.469623 55.548480
264   1 0.0000 10.297683 40.469623 67.450743
265   1 0.0000 14.042295  6.429394  7.939428
266   1 0.0000 14.042295  6.429394 19.841691
267   1 0.0000 14.042295  6.429394 31.743954
268   1 0.0000 14.042295  6.429394 43.646217
269   1 0.0000 14.042295  6.429394 55.548480
270   1 0.0000 14.042295  6.429394 67.450743
271   1 0.0000 14.042295 17.776137  7.939428
272   1 0.0000 14.042295 17.776137 19.841691
273   1 0.0000 14.042295 17.776137 31.743954
274   1 0.0000 14.042295 17.776137 43.646217
275   1 0.0000 14.042295 17.776137 55.548480
276   1 0.0000 14.042295 17.776137 67.450743
277   1 0.0000 14.042295 29.122880  7.939428
278   1 0.0000 14.042295 29.122880 19.841691
279   1 0.0000 14.042295 29.122880 31.743954
280   1 0.0000 14.042295 29.122880 43.646217
281   1 0.0000 14.042295 29.122880 55.548480
282   1 0.0000 14.042295 29.122880 67.450743
283   1 0.0000 14.042295 40.469623  7.939428
284   1 0.0000 14.042295 40.469623 19.841691
285   1 0.0000 14.042295 40.469623 31.743954
286   1 0.0000 14.042295 40.469623 43.646217
287   1 0.0000 14.042295 40.469623 55.548480
288   1 0.0000 14.042295 40.469623 67.450743
289   1 0.0000  0.936153  4.917349  3.962835
290   1 0.0000  0.936153  4.917349 15.865098
291   1 0.0000  0.936153  4.917349 27.767361
292   1 0.0000  0.936153  4.917349 39.669624
293   1 0.0000  0.936153  4.917349 51.571887
294   1 0.0000  0.936153  4.917349 63.474150
295   1 0.0000  0.936153 16.264092  3.962835
296   1 0.0000  0.936153 16.264092 15.865098
297   1 0.0000  0.936153 16.264092 27.767361
298   1 0.0000  0.936153 16.264092 39.669624
299   1 0.0000  0.936153 16.264092 51.571887
300   1 0.0000  0.936153 16.264092 63.474150
301   1 0.0000  0.936153 27.610835  3.962835
302   1 0.0000  0.936153 27.610835 15.865098
303   1 0.0000  0.936153 27.610835 27.767361
304   1 0.0000  0.936153 27.610835 39.669624
305   1 0.0000  0.936153 27.610835 51.571887
306   1 0.0000  0.936153 27.610835 63.474150
307   1 0.0000  0.936153 38.957578  3.962835
308   1 0.0000  0.936153 38.957578 15.865098
309   1 0.0000  0.936153 38.957578 27.767361
310   1 0.0000  0.936153 38.957578 39.669624
311   1 0.0000  0.936153 38.957578 51.571887
312   1 0.0000  0.936153 38.957578 63.474150
313   1 0.0000  4.680765  4.917349  3.962835
314   1 0.0000  4.680765  4.917349 15.865098
315   1 0.0000  4.680765  4.917349 27.767361
316   1 0.0000  4.680765  4.917349 39.669624
317   1 0.0000  4.680765  4.917349 51.571887
318   1 0.0000  4.680765  4.917349 63.474150
319   1 0.0000  4.680765 16.264092  3.962835
320   1 0.0000  4.680765 16.264092 15.865098
321   1 0.0000  4.680765 16.264092 27.767361
322   1 0.0000  4.680765 16.264092 39.669624
323   1 0.0000  4.680765 16.264092 51.571887
324   1 0.0000  4.680765 16.264092 63.474150
325   1 0.0000  4.680765 27.610835  3.962835
326   1 0.0000  4.680765 27.610835 15.865098
327   1 0.0000  4.680765 27.610835 27.767361
328   1 0.0000  4.680765 27.610835 39.669624
329   1 0.0000  4.680765 27.610835 51.571887
330   1 0.0000  4.680765 27.610835 63.474150
331   1 0.0000  4.680765 38.957578  3.962835
332   1 0.0000  4.680765 38.957578 15.865098
333   1 0.0000  4.680765 38.957578 27.767361
334   1 0.0000  4.680765 38.957578 39.669624
335   1 0.0000  4.680765 38.957578 51.571887
336   1 0.0000  4.680765 38.957578 63.474150
337   1 0.0000  8.425377  4.917349  3.962835
338   1 0.0000  8.425377  4.917349 15.865098
339   1 0.0000  8.425377  4.917349 27.767361
340   1 0.0000  8.425377  4.917349 39.669624
341   1 0.0000  8.425377  4.917349 51.571887
342   1 0.0000  8.425377  4.917349 63.474150
343   1 0.0000  8.425377 16.264092  3.962835
344   1 0.0000  8.425377 16.264092 15.865098
345   1 0.0000  8.425377 16.264092 27.767361
346   1 0.0000  8.425377 16.264092 39.669624
347   1 0.0000  8.425377 16.264092 51.571887
348   1 0.0000  8.425377 16.264092 63.474150
349   1 0.0000  8.425377 27.610835  3.962835
350   1 0.0000  8.425377 27.610835 15.865098
351   1 0.0000  8.425377 27.610835 27.767361
352   1 0.0000  8.425377 27.610835 39.669624
353   1 0.0000  8.425377 27.610835 51.571887
354   1 0.0000  8.425377 27.610835 63.474150
355   1 0.0000  8.425377 38.957578  3.962835
356   1 0.0000  8.425377 38.957578 15.865098
357   1 0.0000  8.425377 38.957578 27.767361
358   1 0.0000  8.425377 38.957578 39.669624
359   1 0.0000  8.425377 38.957578 51.571887
360   1 0.0000  8.425377 38.957578 63.474150
361   1 0.0000 12.169989  4.917349  3.962835
362   1 0.0000 12.169989  4.917349 15.865098
363   1 0.0000 12.169989  4.917349 27.767361
364   1 0.0000 12.169989  4.917349 39.669624
365   1 0.0000 12.169989  4.917349 51.571887
366   1 0.0000 12.169989  4.917349 63.474150
367   1 0.0000 12.169989 16.264092  3.962835
368   1 0.0000 12.169989 16.264092 15.865098
369   1 0.0000 12.169989 16.264092 27.767361
370   1 0.0000 12.169989 16.264092 39.669624
371   1 0.0000 12.169989 16.264092 51.571887
372   1 0.0000 12.169989 16.264092 63.474150
373   1 0.0000 12.169989 27.610835  3.962835
374   1 0.0000 12.169989 27.610835 15.865098
375   1 0.0000 12.169989 27.610835 27.767361
376   1 0.0000 12.169989 27.610835 39.669624
377   1 0.0000 12.169989 27.610835 51.571887
378   1 0.0000 12.169989 27.610835 63.474150
379   1 0.0000 12.169989 38.957578  3.962835
380   1 0.0000 12.169989 38.957578 15.865098
381   1 0.0000 12.169989 38.957578 27.767361
382   1 0.0000 12.169989 38.957578 39.669624
383   1 0.0000 12.169989 38.957578 51.571887
384   1 0.0000 12.169989 38.957578 63.474150
385   2 0.0000  0.936153  8.796029  9.649676
386   2 0.0000  0.936153  8.796029 21.551939
387   2 0.0000  0.936153  8.796029 33.454202
388   2 0.0000  0.936153  8.796029 45.356465
389   2 0.0000  0.936153  8.796029 57.258728
390   2 0.0000  0.936153  8.796029 69.160991
391   2 0.0000  0.936153 20.142772  9.649676
392   2 0.0000  0.936153 20.142772 21.551939
393   2 0.0000  0.936153 20.142772 33.454202
394   2 0.0000  0.936153 20.142772 45.356465
395   2 0.0000  0.936153 20.142772 57.258728
396   2 0.0000  0.936153 20.142772 69.160991
397   2 0.0000  0.936153 31.489515  9.649676
398   2 0.0000  0.936153 31.489515 21.551939
399   2 0.0000  0.936153 31.489515 33.454202
400   2 0.0000  0.936153 31.489515 45.356465
401   2 0.0000  0.936153 31.489515 57.258728
402   2 0.0000  0.936153 31.489515 69.160991
403   2 0.0000  0.936153 42.836258  9.649676
404   2 0.0000  0.936153 42.836258 21.551939
405   2 0.0000  0.936153 42.836258 33.454202
406   2 0.0000  0.936153 42.836258 45.356465
407   2 0.0000  0.936153 42.836258 57.258728
408   2 0.0000  0.936153 42.836258 69.160991
409   2 0.0000  4.680765  8.796029  9.649676
410   2 0.0000  4.680765  8.796029 21.551939
411   2 0.0000  4.680765  8.796029 33.454202
412   2 0.0000  4.680765  8.796029 45.356465
413   2 0.0000  4.680765  8.796029 57.258728
414   2 0.0000  4.680765  8.796029 69.160991
415   2 0.0000  4.680765 20.142772  9.649676
416   2 0.0000  4.680765 20.142772 21.551939
417   2 0.0000  4.680765 20.142772 33.454202
418   2 0.0000  4.680765 20.142772 45.356465
419   2 0.0000  4.680765 20.142772 57.258728
420   2 0.0000  4.680765 20.142772 69.160991
421   2 0.0000  4.680765 31.489515  9.649676
422   2 0.0000  4.680765 31.489515 21.551939
423   2 0.0000  4.680765 31.489515 33.454202
424   2 0.0000  4.680765 31.489515 45.356465
425   2 0.0000  4.680765 31.489515 57.258728
426   2 0.0000  4.680765 31.489515 69.160991
427   2 0.0000  4.680765 42.836258  9.649676
428   2 0.0000  4.680765 42.836258 21.551939
429   2 0.0000  4.680765 42.836258 33.454202
430   2 0.0000  4.680765 42.836258 45.356465
431   2 0.0000  4.680765 42.836258 57.258728
432   2 0.0000  4.680765 42.836258 69.160991
433   2 0.0000  8.425377  8.796029  9.649676
434   2 0.0000  8.425377  8.796029 21.551939
435   2 0.0000  8.425377  8.796029 33.454202
436   2 0.0000  8.425377  8.796029 45.356465
437   2 0.0000  8.425377  8.796029 57.258728
438   2 0.0000  8.425377  8.796029 69.160991
439   2 0.0000  8.425377 20.142772  9.649676
440   2 0.0000  8.425377 20.142772 21.551939
441   2 0.0000  8.425377 20.142772 33.454202
442   2 0.0000  8.425377 20.142772 45.356465
443   2 0.0000  8.425377 20.142772 57.258728
444   2 0.0000  8.425377 20.142772 69.160991
445   2 0.0000  8.425377 31.489515  9.649676
446   2 0.0000  8.425377 31.489515 21.551939
447   2 0.0000  8.425377 31.489515 33.454202
448   2 0.0000  8.425377 31.489515 45.356465
449   2 0.0000  8.425377 31.489515 57.258728
450   2 0.0000  8.425377 31.489515 69.160991
451   2 0.0000  8.425377 42.836258  9.649676
452   2 0.0000  8.425377 42.836258 21.551939
453   2 0.0000  8.425377 42.836258 33.454202
454   2 0.0000  8.425377 42.836258 45.356465
455   2 0.0000  8.425377 42.836258 57.258728
456   2 0.0000  8.425377 42.836258 69.160991
457   2 0.0000 12.169989  8.796029  9.649676
458   2 0.0000 12.169989  8.796029 21.551939
459   2 0.0000 12.169989  8.796029 33.454202
460   2 0.0000 12.169989  8.796029 45.356465
461   2 0.0000 12.169989  8.796029 57.258728
462   2 0.0000 12.169989  8.796029 69.160991
463   2 0.0000 12.169989 20.142772  9.649676
464   2 0.0000 12.169989 20.142772 21.551939
465   2 0.0000 12.169989 20.142772 33.454202
466   2 0.0000 12.169989 20.142772 45.356465
467   2 0.0000 12.169989 20.142772 57.258728
468   2 0.0000 12.169989 20.142772 69.160991
469   2 0.0000 12.169989 31.489515  9.649676
470   2 0.0000 12.169989 31.489515 21.551939
471   2 0.0000 12.169989 31.489515 33.454202
472   2 0.0000 12.169989 31.489515 45.356465
473   2 0.0000 12.169989 31.489515 57.258728
474   2 0.0000 12.169989 31.489515 69.160991
475   2 0.0000 12.169989 42.836258  9.649676
476   2 0.0000 12.169989 42.836258 21.551939
477   2 0.0000 12.169989 42.836258 33.454202
478   2 0.0000 12.169989 42.836258 45.356465
479   2 0.0000 12.169989 42.836258 57.258728
480   2 0.0000 12.169989 42.836258 69.160991
481   2 0.0000  2.808459  2.550714  2.252587
482   2 0.0000  2.808459  2.550714 14.154850
483   2 0.0000  2.808459  2.550714 26.057113
484   2 0.0000  2.808459  2.550714 37.959376
485   2 0.0000  2.808459  2.550714 49.861639
486   2 0.0000  2.808459  2.550714 61.763902
487   2 0.0000  2.808459 13.897457  2.252587
488   2 0.0000  2.808459 13.897457 14.154850
489   2 0.0000  2.808459 13.897457 26.057113
490   2 0.0000  2.808459 13.897457 37.959376
491   2 0.0000  2.808459 13.897457 49.861639
492   2 0.0000  2.808459 13.897457 61.763902
493   2 0.0000  2.808459 25.244200  2.252587
494   2 0.0000  2.808459 25.244200 14.154850
495   2 0.0000  2.808459 25.244200 26.057113
496   2 0.0000  2.808459 25.244200 37.959376
497   2 0.0000  2.808459 25.244200 49.861639
498   2 0.0000  2.808459 25.244200 61.763902
499   2 0.0000  2.808459 36.590943  2.252587
500   2 0.0000  2.808459 36.590943 14.154850
501   2 0.0000  2.808459 36.590943 26.057113
502   2 0.0000  2.808459 36.590943 37.959376
503   2 0.0000  2.808459 36.590943 49.861639
504   2 0.0000  2.808459 36.590943 61.763902
505   2 0.0000  6.553071  2.550714  2.252587
506   2 0.0000  6.553071  2.550714 14.154850
507   2 0.0000  6.553071  2.550714 26.057113
508   2 0.0000  6.553071  2.550714 37.959376
509   2 0.0000  6.553071  2.550714 49.861639
510   2 0.0000  6.553071  2.550714 61.763902
511   2 0.0000  6.553071 13.897457  2.252587
512   2 0.0000  6.553071 13.897457 14.154850
513   2 0.0000  6.553071 13.897457 26.057113
514   2 0.0000  6.553071 13.897457 37.959376
515   2 0.0000  6.553071 13.897457 49.861639
516   2 0.0000  6.553071 13.897457 61.763902
517   2 0.0000  6.553071 25.244200  2.252587
518   2 0.0000  6.553071 25.244200 14.154850
519   2 0.0000  6.553071 25.244200 26.057113
520   2 0.0000  6.553071 25.244200 37.959376
521   2 0.0000  6.553071 25.244200 49.861639
522   2 0.0000  6.553071 25.244200 61.763902
523   2 0.0000  6.553071 36.590943  2.252587
524   2 0.0000  6.553071 36.590943 14.154850
525   2 0.0000  6.553071 36.590943 26.057113
526   2 0.0000  6.553071 36.590943 37.959376
527   2 0.0000  6.553071 36.590943 49.861639
528   2 0.0000  6.553071 36.590943 61.763902
529   2 0.0000 10.297683  2.550714  2.252587
530   2 0.0000 10.297683  2.550714 14.154850
531   2 0.0000 10.297683  2.550714 26.057113
532   2 0.0000 10.297683  2.550714 37.959376
533   2 0.0000 10.297683  2.550714 49.861639
534   2 0.0000 10.297683  2.550714 61.763902
535   2 0.0000 10.297683 13.897457  2.252587
536   2 0.0000 10.297683 13.897457 14.154850
537   2 0.0000 10.297683 13.897457 26.057113
538   2 0.0000 10.297683 13.897457 37.959376
539   2 0.0000 10.297683 13.897457 49.861639
540   2 0.0000 10.297683 13.897457 61.763902
541   2 0.0000 10.297683 25.244200  2.252587
542   2 0.0000 10.297683 25.244200 14.154850
543   2 0.0000 10.297683 25.244200 26.057113
544   2 0.0000 10.297683 25.244200 37.959376
545   2 0.0000 10.297683 25.244200 49.861639
546   2 0.0000 10.297683 25.244200 61.763902
547   2 0.0000 10.297683 36.590943  2.252587
548   2 0.0000 10.297683 36.590943 14.154850
549   2 0.0000 10.297683 36.590943 26.057113
550   2 0.0000 10.297683 36.590943 37.959376
551   2 0.0000 10.297683 36.590943 49.861639
552   2 0.0000 10.297683 36.590943 61.763902
553   2 0.0000 14.042295  2.550714  2.252587
554   2 0.0000 14.042295  2.550714 14.154850
555   2 0.0000 14.042295  2.550714 26.057113
556   2 0.0000 14.042295  2.550714 37.959376
557   2 0.0000 14.042295  2.550714 49.861639
558   2 0.0000 14.042295  2.550714 61.763902
559   2 0.0000 14.042295 13.897457  2.252587
560   2 0.0000 14.042295 13.897457 14.154850
561   2 0.0000 14.042295 13.897457 26.057113
562   2 0.0000 14.042295 13.897457 37.959376
563   2 0.0000 14.042295 13.897457 49.861639
564   2 0.0000 14.042295 13.897457 61.763902
565   2 0.0000 14.042295 25.244200  2.252587
566   2 0.0000 14.042295 25.244200 14.154850
567   2 0.0000 14.042295 25.244200 26.057113
568   2 0.0000 14.042295 25.244200 37.959376
569   2 0.0000 14.042295 25.244200 49.861639
570   2 0.0000 14.042295 25.244200 61.763902
571   2 0.0000 14.042295 36.590943  2.252587
572   2 0.0000 14.042295 36.590943 14.154850
573   2 0.0000 14.042295 36.590943 26.057113
574   2 0.0000 14.042295 36.590943 37.959376
575   2 0.0000 14.042295 36.590943 49.861639
576   2 0.0000 14.042295 36.590943 61.763902
577   2 0.0000  2.808459  3.122658  8.203718
578   2 0.0000  2.808459  3.122658 20.105981
579   2 0.0000  2.808459  3.122658 32.008244
580   2 0.0000  2.808459  3.122658 43.910507
581   2 0.0000  2.808459  3.122658 55.812770
582   2 0.0000  2.808459  3.122658 67.715033
583   2 0.0000  2.808459 14.469401  8.203718
584   2 0.0000  2.808459 14.469401 20.105981
585   2 0.0000  2.808459 14.469401 32.008244
586   2 0.0000  2.808459 14.469401 43.910507
587   2 0.0000  2.808459 14.469401 55.812770
588   2 0.0000  2.808459 14.469401 67.715033
589   2 0.0000  2.808459 25.816144  8.203718
590   2 0.0000  2.808459 25.816144 20.105981
591   2 0.0000  2.808459 25.816144 32.008244
592   2 0.0000  2.808459 25.816144 43.910507
593   2 0.0000  2.808459 25.816144 55.812770
594   2 0.0000  2.808459 25.816144 67.715033
595   2 0.0000  2.808459 37.162887  8.203718
596   2 0.0000  2.808459 37.162887 20.105981
597   2 0.0000  2.808459 37.162887 32.008244
598   2 0.0000  2.808459 37.162887 43.910507
599   2 0.0000  2.808459 37.162887 55.812770
600   2 0.0000  2.808459 37.162887 67.715033
601   2 0.0000  6.553071  3.122658  8.203718
602   2 0.0000  6.553071  3.122658 20.105981
603   2 0.0000  6.553071  3.122658 32.008244
604   2 0.0000  6.553071  3.122658 43.910507
605   2 0.0000  6.553071  3.122658 55.812770
606   2 0.0000  6.553071  3.122658 67.715033
607   2 0.0000  6.553071 14.469401  8.203718
608   2 0.0000  6.553071 14.469401 20.105981
609   2 0.0000  6.553071 14.469401 32.008244
610   2 0.0000  6.553071 14.469401 43.910507
611   2 0.0000  6.553071 14.469401 55.812770
612   2 0.0000  6.553071 14.469401 67.715033
613   2 0.0000  6.553071 25.816144  8.203718
614   2 0.0000  6.553071 25.816144 20.105981
615   2 0.0000  6.553071 25.816144 32.008244
616   2 0.0000  6.553071 25.816144 43.910507
617   2 0.0000  6.553071 25.816144 55.812770
618   2 0.0000  6.553071 25.816144 67.715033
619   2 0.0000  6.553071 37.162887  8.203718
620   2 0.0000  6.553071 37.162887 20.105981
621   2 0.0000  6.553071 37.162887 32.008244
622   2 0.0000  6.553071 37.162887 43.910507
623   2 0.0000  6.553071 37.162887 55.812770
624   2 0.0000  6.553071 37.162887 67.715033
625   2 0.0000 10.297683  3.122658  8.203718
626   2 0.0000 10.297683  3.122658 20.105981
627   2 0.0000 10.297683  3.122658 32.008244
628   2 0.0000 10.297683  3.122658 43.910507
629   2 0.0000 10.297683  3.122658 55.812770
630   2 0.0000 10.297683  3.122658 67.715033
631   2 0.0000 10.297683 14.469401  8.203718
632   2 0.0000 10.297683 14.469401 20.105981
633   2 0.0000 10.297683 14.469401 32.008244
634   2 0.0000 10.297683 14.469401 43.910507
635   2 0.0000 10.297683 14.469401 55.812770
636   2 0.0000 10.297683 14.469401 67.715033
637   2 0.0000 10.297683 25.816144  8.203718
638   2 0.0000 10.297683 25.816144 20.105981
639   2 0.0000 10.297683 25.816144 32.008244
640   2 0.0000 10.297683 25.816144 43.910507
641   2 0.0000 10.297683 25.816144 55.812770
642   2 0.0000 10.297683 25.816144 67.715033
643   2 0.0000 10.297683 37.162887  8.203718
644   2 0.0000 10.297683 37.162887 20.105981
645   2 0.0000 10.297683 37.162887 32.008244
646   2 0.0000 10.297683 37.162887 43.910507
647   2 0.0000 10.297683 37.162887 55.812770
648   2 0.0000 10.297683 37.162887 67.715033
649   2 0.0000 14.042295  3.122658  8.203718
650   2 0.0000 14.042295  3.122658 20.105981
651   2 0.0000 14.042295  3.122658 32.008244
652   2 0.0000 14.042295  3.122658 43.910507
653   2 0.0000 14.042295  3.122658 55.812770
654   2 0.0000 14.042295  3.122658 67.715033
655   2 0.0000 14.042295 14.469401  8.203718
656   2 0.0000 14.042295 14.469401 20.105981
657   2 0.0000 14.042295 14.469401 32.008244
658   2 0.0000 14.042295 14.469401 43.910507
659   2 0.0000 14.042295 14.469401 55.812770
660   2 0.0000 14.042295 14.469401 67.715033
661   2 0.0000 14.042295 25.816144  8.203718