Generated by pymatgen.io.lammps.data.LammpsData

512  atoms

  3  atom types

0.000000 7.489224  xlo xhi
0.000000 22.693486  ylo yhi
0.000000 47.609052  zlo zhi

Masses

1  40.0780
2  55.8450
3  74.9216

Atoms

1    1 0.0000 0.936153  0.756022  9.913966
2    1 0.0000 0.936153  0.756022 21.816229
3    1 0.0000 0.936153  0.756022 33.718492
4    1 0.0000 0.936153  0.756022 45.620755
5    1 0.0000 0.936153 12.102765  9.913966
6    1 0.0000 0.936153 12.102765 21.816229
7    1 0.0000 0.936153 12.102765 33.718492
8    1 0.0000 0.936153 12.102765 45.620755
9    1 0.0000 4.680765  0.756022  9.913966
10   1 0.0000 4.680765  0.756022 21.816229
11   1 0.0000 4.680765  0.756022 33.718492
12   1 0.0000 4.680765  0.756022 45.620755
13   1 0.0000 4.680765 12.102765  9.913966
14   1 0.0000 4.680765 12.102765 21.816229
15   1 0.0000 4.680765 12.102765 33.718492
16   1 0.0000 4.680765 12.102765 45.620755
17   1 0.0000 2.808459 10.590721  1.988297
18   1 0.0000 2.808459 10.590721 13.890560
19   1 0.0000 2.808459 10.590721 25.792823
20   1 0.0000 2.808459 10.590721 37.695086
21   1 0.0000 2.808459 21.937464  1.988297
22   1 0.0000 2.808459 21.937464 13.890560
23   1 0.0000 2.808459 21.937464 25.792823
24   1 0.0000 2.808459 21.937464 37.695086
25   1 0.0000 6.553071 10.590721  1.988297
26   1 0.0000 6.553071 10.590721 13.890560
27   1 0.0000 6.553071 10.590721 25.792823
28   1 0.0000 6.553071 10.590721 37.695086
29   1 0.0000 6.553071 21.937464  1.988297
30   1 0.0000 6.553071 21.937464 13.890560
31   1 0.0000 6.553071 21.937464 25.792823
32   1 0.0000 6.553071 21.937464 37.695086
33   1 0.0000 2.808459  6.429394  7.939428
34   1 0.0000 2.808459  6.429394 19.841691
35   1 0.0000 2.808459  6.429394 31.743954
36   1 0.0000 2.808459  6.429394 43.646217
37   1 0.0000 2.808459 17.776137  7.939428
38   1 0.0000 2.808459 17.776137 19.841691
39   1 0.0000 2.808459 17.776137 31.743954
40   1 0.0000 2.808459 17.776137 43.646217
41   1 0.0000 6.553071  6.429394  7.939428
42   1 0.0000 6.553071  6.429394 19.841691
43   1 0.0000 6.553071  6.429394 31.743954
44   1 0.0000 6.553071  6.429394 43.646217
45   1 0.0000 6.553071 17.776137  7.939428
46   1 0.0000 6.553071 17.776137 19.841691
47   1 0.0000 6.553071 17.776137 31.743954
48   1 0.0000 6.553071 17.776137 43.646217
49   1 0.0000 0.936153  4.917349  3.962835
50   1 0.0000 0.936153  4.917349 15.865098
51   1 0.0000 0.936153  4.917349 27.767361
52   1 0.0000 0.936153  4.917349 39.669624
53   1 0.0000 0.936153 16.264092  3.962835
54   1 0.0000 0.936153 16.264092 15.865098
55   1 0.0000 0.936153 16.264092 27.767361
56   1 0.0000 0.936153 16.264092 39.669624
57   1 0.0000 4.680765  4.917349  3.962835
58   1 0.0000 4.680765  4.917349 15.865098
59   1 0.0000 4.680765  4.917349 27.767361
60   1 0.0000 4.680765  4.917349 39.669624
61   1 0.0000 4.680765 16.264092  3.962835
62   1 0.0000 4.680765 16.264092 15.865098
63   1 0.0000 4.680765 16.264092 27.767361
64   1 0.0000 4.680765 16.264092 39.669624
65   2 0.0000 0.936153  8.796029  9.649676
66   2 0.0000 0.936153  8.796029 21.551939
67   2 0.0000 0.936153  8.796029 33.454202
68   2 0.0000 0.936153  8.796029 45.356465
69   2 0.0000 0.936153 20.142772  9.649676
70   2 0.0000 0.936153 20.142772 21.551939
71   2 0.0000 0.936153 20.142772 33.454202
72   2 0.0000 0.936153 20.142772 45.356465
73   2 0.0000 4.680765  8.796029  9.649676
74   2 0.0000 4.680765  8.796029 21.551939
75   2 0.0000 4.680765  8.796029 33.454202
76   2 0.0000 4.680765  8.796029 45.356465
77   2 0.0000 4.680765 20.142772  9.649676
78   2 0.0000 4.680765 20.142772 21.551939
79   2 0.0000 4.680765 20.142772 33.454202
80   2 0.0000 4.680765 20.142772 45.356465
81   2 0.0000 2.808459  2.550714  2.252587
82   2 0.0000 2.808459  2.550714 14.154850
83   2 0.0000 2.808459  2.550714 26.057113
84   2 0.0000 2.808459  2.550714 37.959376
85   2 0.0000 2.808459 13.897457  2.252587
86   2 0.0000 2.808459 13.897457 14.154850
87   2 0.0000 2.808459 13.897457 26.057113
88   2 0.0000 2.808459 13.897457 37.959376
89   2 0.0000 6.553071  2.550714  2.252587
90   2 0.0000 6.553071  2.550714 14.154850
91   2 0.0000 6.553071  2.550714 26.057113
92   2 0.0000 6.553071  2.550714 37.959376
93   2 0.0000 6.553071 13.897457  2.252587
94   2 0.0000 6.553071 13.897457 14.154850
95   2 0.0000 6.553071 13.897457 26.057113
96   2 0.0000 6.553071 13.897457 37.959376
97   2 0.0000 2.808459  3.122658  8.203718
98   2 0.0000 2.808459  3.122658 20.105981
99   2 0.0000 2.808459  3.122658 32.008244
100  2 0.0000 2.808459  3.122658 43.910507
101  2 0.0000 2.808459 14.469401  8.203718
102  2 0.0000 2.808459 14.469401 20.105981
103  2 0.0000 2.808459 14.469401 32.008244
104  2 0.0000 2.808459 14.469401 43.910507
105  2 0.0000 6.553071  3.122658  8.203718
106  2 0.0000 6.553071  3.122658 20.105981
107  2 0.0000 6.553071  3.122658 32.008244
108  2 0.0000 6.553071  3.122658 43.910507
109  2 0.0000 6.553071 14.469401  8.203718
110  2 0.0000 6.553071 14.469401 20.105981
111  2 0.0000 6.553071 14.469401 32.008244
112  2 0.0000 6.553071 14.469401 43.910507
113  2 0.0000 0.936153  8.224085  3.698545
114  2 0.0000 0.936153  8.224085 15.600808
115  2 0.0000 0.936153  8.224085 27.503071
116  2 0.0000 0.936153  8.224085 39.405334
117  2 0.0000 0.936153 19.570828  3.698545
118  2 0.0000 0.936153 19.570828 15.600808
119  2 0.0000 0.936153 19.570828 27.503071
120  2 0.0000 0.936153 19.570828 39.405334
121  2 0.0000 4.680765  8.224085  3.698545
122  2 0.0000 4.680765  8.224085 15.600808
123  2 0.0000 4.680765  8.224085 27.503071
124  2 0.0000 4.680765  8.224085 39.405334
125  2 0.0000 4.680765 19.570828  3.698545
126  2 0.0000 4.680765 19.570828 15.600808
127  2 0.0000 4.680765 19.570828 27.503071
128  2 0.0000 4.680765 19.570828 39.405334
129  2 0.0000 0.936153  4.213545  9.603734
130  2 0.0000 0.936153  4.213545 21.505997
131  2 0.0000 0.936153  4.213545 33.408260
132  2 0.0000 0.936153  4.213545 45.310523
133  2 0.0000 0.936153 15.560288  9.603734
134  2 0.0000 0.936153 15.560288 21.505997
135  2 0.0000 0.936153 15.560288 33.408260
136  2 0.0000 0.936153 15.560288 45.310523
137  2 0.0000 4.680765  4.213545  9.603734
138  2 0.0000 4.680765  4.213545 21.505997
139  2 0.0000 4.680765  4.213545 33.408260
140  2 0.0000 4.680765  4.213545 45.310523
141  2 0.0000 4.680765 15.560288  9.603734
142  2 0.0000 4.680765 15.560288 21.505997
143  2 0.0000 4.680765 15.560288 33.408260
144  2 0.0000 4.680765 15.560288 45.310523
145  2 0.0000 2.808459  7.133198  2.298529
146  2 0.0000 2.808459  7.133198 14.200792
147  2 0.0000 2.808459  7.133198 26.103055
148  2 0.0000 2.808459  7.133198 38.005318
149  2 0.0000 2.808459 18.479941  2.298529
150  2 0.0000 2.808459 18.479941 14.200792
151  2 0.0000 2.808459 18.479941 26.103055
152  2 0.0000 2.808459 18.479941 38.005318
153  2 0.0000 6.553071  7.133198  2.298529
154  2 0.0000 6.553071  7.133198 14.200792
155  2 0.0000 6.553071  7.133198 26.103055
156  2 0.0000 6.553071  7.133198 38.005318
157  2 0.0000 6.553071 18.479941  2.298529
158  2 0.0000 6.553071 18.479941 14.200792
159  2 0.0000 6.553071 18.479941 26.103055
160  2 0.0000 6.553071 18.479941 38.005318
161  2 0.0000 2.808459  9.886916  8.249661
162  2 0.0000 2.808459  9.886916 20.151924
163  2 0.0000 2.808459  9.886916 32.054187
164  2 0.0000 2.808459  9.886916 43.956450
165  2 0.0000 2.808459 21.233659  8.249661
166  2 0.0000 2.808459 21.233659 20.151924
167  2 0.0000 2.808459 21.233659 32.054187
168  2 0.0000 2.808459 21.233659 43.956450
169  2 0.0000 6.553071  9.886916  8.249661
170  2 0.0000 6.553071  9.886916 20.151924
171  2 0.0000 6.553071  9.886916 32.054187
172  2 0.0000 6.553071  9.886916 43.956450
173  2 0.0000 6.553071 21.233659  8.249661
174  2 0.0000 6.553071 21.233659 20.151924
175  2 0.0000 6.553071 21.233659 32.054187
176  2 0.0000 6.553071 21.233659 43.956450
177  2 0.0000 0.936153  1.459827  3.652602
178  2 0.0000 0.936153  1.459827 15.554865
179  2 0.0000 0.936153  1.459827 27.457128
180  2 0.0000 0.936153  1.459827 39.359391
181  2 0.0000 0.936153 12.806570  3.652602
182  2 0.0000 0.936153 12.806570 15.554865
183  2 0.0000 0.936153 12.806570 27.457128
184  2 0.0000 0.936153 12.806570 39.359391
185  2 0.0000 4.680765  1.459827  3.652602
186  2 0.0000 4.680765  1.459827 15.554865
187  2 0.0000 4.680765  1.459827 27.457128
188  2 0.0000 4.680765  1.459827 39.359391
189  2 0.0000 4.680765 12.806570  3.652602
190  2 0.0000 4.680765 12.806570 15.554865
191  2 0.0000 4.680765 12.806570 27.457128
192  2 0.0000 4.680765 12.806570 39.359391
193  2 0.0000 0.936153  3.593548  0.165489
194  2 0.0000 0.936153  3.593548 12.067752
195  2 0.0000 0.936153  3.593548 23.970015
196  2 0.0000 0.936153  3.593548 35.872278
197  2 0.0000 0.936153 14.940291  0.165489
198  2 0.0000 0.936153 14.940291 12.067752
199  2 0.0000 0.936153 14.940291 23.970015
200  2 0.0000 0.936153 14.940291 35.872278
201  2 0.0000 4.680765  3.593548  0.165489
202  2 0.0000 4.680765  3.593548 12.067752
203  2 0.0000 4.680765  3.593548 23.970015
204  2 0.0000 4.680765  3.593548 35.872278
205  2 0.0000 4.680765 14.940291  0.165489
206  2 0.0000 4.680765 14.940291 12.067752
207  2 0.0000 4.680765 14.940291 23.970015
208  2 0.0000 4.680765 14.940291 35.872278
209  2 0.0000 2.808459  7.753195 11.736774
210  2 0.0000 2.808459  7.753195 23.639037
211  2 0.0000 2.808459  7.753195 35.541300
212  2 0.0000 2.808459  7.753195 47.443563
213  2 0.0000 2.808459 19.099938 11.736774
214  2 0.0000 2.808459 19.099938 23.639037
215  2 0.0000 2.808459 19.099938 35.541300
216  2 0.0000 2.808459 19.099938 47.443563
217  2 0.0000 6.553071  7.753195 11.736774
218  2 0.0000 6.553071  7.753195 23.639037
219  2 0.0000 6.553071  7.753195 35.541300
220  2 0.0000 6.553071  7.753195 47.443563
221  2 0.0000 6.553071 19.099938 11.736774
222  2 0.0000 6.553071 19.099938 23.639037
223  2 0.0000 6.553071 19.099938 35.541300
224  2 0.0000 6.553071 19.099938 47.443563
225  2 0.0000 2.808459  9.266919  5.785642
226  2 0.0000 2.808459  9.266919 17.687905
227  2 0.0000 2.808459  9.266919 29.590168
228  2 0.0000 2.808459  9.266919 41.492431
229  2 0.0000 2.808459 20.613662  5.785642
230  2 0.0000 2.808459 20.613662 17.687905
231  2 0.0000 2.808459 20.613662 29.590168
232  2 0.0000 2.808459 20.613662 41.492431
233  2 0.0000 6.553071  9.266919  5.785642
234  2 0.0000 6.553071  9.266919 17.687905
235  2 0.0000 6.553071  9.266919 29.590168
236  2 0.0000 6.553071  9.266919 41.492431
237  2 0.0000 6.553071 20.613662  5.785642
238  2 0.0000 6.553071 20.613662 17.687905
239  2 0.0000 6.553071 20.613662 29.590168
240  2 0.0000 6.553071 20.613662 41.492431
241  2 0.0000 0.936153  2.079824  6.116621
242  2 0.0000 0.936153  2.079824 18.018884
243  2 0.0000 0.936153  2.079824 29.921147
244  2 0.0000 0.936153  2.079824 41.823410
245  2 0.0000 0.936153 13.426567  6.116621
246  2 0.0000 0.936153 13.426567 18.018884
247  2 0.0000 0.936153 13.426567 29.921147
248  2 0.0000 0.936153 13.426567 41.823410
249  2 0.0000 4.680765  2.079824  6.116621
250  2 0.0000 4.680765  2.079824 18.018884
251  2 0.0000 4.680765  2.079824 29.921147
252  2 0.0000 4.680765  2.079824 41.823410
253  2 0.0000 4.680765 13.426567  6.116621
254  2 0.0000 4.680765 13.426567 18.018884
255  2 0.0000 4.680765 13.426567 29.921147
256  2 0.0000 4.680765 13.426567 41.823410
257  2 0.0000 0.936153  6.115804  0.810389
258  2 0.0000 0.936153  6.115804 12.712652
259  2 0.0000 0.936153  6.115804 24.614915
260  2 0.0000 0.936153  6.115804 36.517178
261  2 0.0000 0.936153 17.462547  0.810389
262  2 0.0000 0.936153 17.462547 12.712652
263  2 0.0000 0.936153 17.462547 24.614915
264  2 0.0000 0.936153 17.462547 36.517178
265  2 0.0000 4.680765  6.115804  0.810389
266  2 0.0000 4.680765  6.115804 12.712652
267  2 0.0000 4.680765  6.115804 24.614915
268  2 0.0000 4.680765  6.115804 36.517178
269  2 0.0000 4.680765 17.462547  0.810389
270  2 0.0000 4.680765 17.462547 12.712652
271  2 0.0000 4.680765 17.462547 24.614915
272  2 0.0000 4.680765 17.462547 36.517178
273  2 0.0000 2.808459  5.230939 11.091874
274  2 0.0000 2.808459  5.230939 22.994137
275  2 0.0000 2.808459  5.230939 34.896400
276  2 0.0000 2.808459  5.230939 46.798663
277  2 0.0000 2.808459 16.577682 11.091874
278  2 0.0000 2.808459 16.577682 22.994137
279  2 0.0000 2.808459 16.577682 34.896400
280  2 0.0000 2.808459 16.577682 46.798663
281  2 0.0000 6.553071  5.230939 11.091874
282  2 0.0000 6.553071  5.230939 22.994137
283  2 0.0000 6.553071  5.230939 34.896400
284  2 0.0000 6.553071  5.230939 46.798663
285  2 0.0000 6.553071 16.577682 11.091874
286  2 0.0000 6.553071 16.577682 22.994137
287  2 0.0000 6.553071 16.577682 34.896400
288  2 0.0000 6.553071 16.577682 46.798663
289  2 0.0000 2.808459  0.442432  5.140742
290  2 0.0000 2.808459  0.442432 17.043005
291  2 0.0000 2.808459  0.442432 28.945268
292  2 0.0000 2.808459  0.442432 40.847531
293  2 0.0000 2.808459 11.789175  5.140742
294  2 0.0000 2.808459 11.789175 17.043005
295  2 0.0000 2.808459 11.789175 28.945268
296  2 0.0000 2.808459 11.789175 40.847531
297  2 0.0000 6.553071  0.442432  5.140742
298  2 0.0000 6.553071  0.442432 17.043005
299  2 0.0000 6.553071  0.442432 28.945268
300  2 0.0000 6.553071  0.442432 40.847531
301  2 0.0000 6.553071 11.789175  5.140742
302  2 0.0000 6.553071 11.789175 17.043005
303  2 0.0000 6.553071 11.789175 28.945268
304  2 0.0000 6.553071 11.789175 40.847531
305  2 0.0000 0.936153 10.904311  6.761521
306  2 0.0000 0.936153 10.904311 18.663784
307  2 0.0000 0.936153 10.904311 30.566047
308  2 0.0000 0.936153 10.904311 42.468310
309  2 0.0000 0.936153 22.251054  6.761521
310  2 0.0000 0.936153 22.251054 18.663784
311  2 0.0000 0.936153 22.251054 30.566047
312  2 0.0000 0.936153 22.251054 42.468310
313  2 0.0000 4.680765 10.904311  6.761521
314  2 0.0000 4.680765 10.904311 18.663784
315  2 0.0000 4.680765 10.904311 30.566047
316  2 0.0000 4.680765 10.904311 42.468310
317  2 0.0000 4.680765 22.251054  6.761521
318  2 0.0000 4.680765 22.251054 18.663784
319  2 0.0000 4.680765 22.251054 30.566047
320  2 0.0000 4.680765 22.251054 42.468310
321  3 0.0000 0.936153  6.528757 10.395698
322  3 0.0000 0.936153  6.528757 22.297961
323  3 0.0000 0.936153  6.528757 34.200224
324  3 0.0000 0.936153  6.528757 46.102487
325  3 0.0000 0.936153 17.875500 10.395698
326  3 0.0000 0.936153 17.875500 22.297961
327  3 0.0000 0.936153 17.875500 34.200224
328  3 0.0000 0.936153 17.875500 46.102487
329  3 0.0000 4.680765  6.528757 10.395698
330  3 0.0000 4.680765  6.528757 22.297961
331  3 0.0000 4.680765  6.528757 34.200224
332  3 0.0000 4.680765  6.528757 46.102487
333  3 0.0000 4.680765 17.875500 10.395698
334  3 0.0000 4.680765 17.875500 22.297961
335  3 0.0000 4.680765 17.875500 34.200224
336  3 0.0000 4.680765 17.875500 46.102487
337  3 0.0000 2.808459  4.817986  1.506565
338  3 0.0000 2.808459  4.817986 13.408828
339  3 0.0000 2.808459  4.817986 25.311091
340  3 0.0000 2.808459  4.817986 37.213354
341  3 0.0000 2.808459 16.164729  1.506565
342  3 0.0000 2.808459 16.164729 13.408828
343  3 0.0000 2.808459 16.164729 25.311091
344  3 0.0000 2.808459 16.164729 37.213354
345  3 0.0000 6.553071  4.817986  1.506565
346  3 0.0000 6.553071  4.817986 13.408828
347  3 0.0000 6.553071  4.817986 25.311091
348  3 0.0000 6.553071  4.817986 37.213354
349  3 0.0000 6.553071 16.164729  1.506565
350  3 0.0000 6.553071 16.164729 13.408828
351  3 0.0000 6.553071 16.164729 25.311091
352  3 0.0000 6.553071 16.164729 37.213354
353  3 0.0000 2.808459  0.855386  7.457696
354  3 0.0000 2.808459  0.855386 19.359959
355  3 0.0000 2.808459  0.855386 31.262222
356  3 0.0000 2.808459  0.855386 43.164485
357  3 0.0000 2.808459 12.202129  7.457696
358  3 0.0000 2.808459 12.202129 19.359959
359  3 0.0000 2.808459 12.202129 31.262222
360  3 0.0000 2.808459 12.202129 43.164485
361  3 0.0000 6.553071  0.855386  7.457696
362  3 0.0000 6.553071  0.855386 19.359959
363  3 0.0000 6.553071  0.855386 31.262222
364  3 0.0000 6.553071  0.855386 43.164485
365  3 0.0000 6.553071 12.202129  7.457696
366  3 0.0000 6.553071 12.202129 19.359959
367  3 0.0000 6.553071 12.202129 31.262222
368  3 0.0000 6.553071 12.202129 43.164485
369  3 0.0000 0.936153 10.491357  4.444567
370  3 0.0000 0.936153 10.491357 16.346830
371  3 0.0000 0.936153 10.491357 28.249093
372  3 0.0000 0.936153 10.491357 40.151356
373  3 0.0000 0.936153 21.838100  4.444567
374  3 0.0000 0.936153 21.838100 16.346830
375  3 0.0000 0.936153 21.838100 28.249093
376  3 0.0000 0.936153 21.838100 40.151356
377  3 0.0000 4.680765 10.491357  4.444567
378  3 0.0000 4.680765 10.491357 16.346830
379  3 0.0000 4.680765 10.491357 28.249093
380  3 0.0000 4.680765 10.491357 40.151356
381  3 0.0000 4.680765 21.838100  4.444567
382  3 0.0000 4.680765 21.838100 16.346830
383  3 0.0000 4.680765 21.838100 28.249093
384  3 0.0000 4.680765 21.838100 40.151356
385  3 0.0000 0.936153  8.623445  7.279674
386  3 0.0000 0.936153  8.623445 19.181937
387  3 0.0000 0.936153  8.623445 31.084200
388  3 0.0000 0.936153  8.623445 42.986463
389  3 0.0000 0.936153 19.970188  7.279674
390  3 0.0000 0.936153 19.970188 19.181937
391  3 0.0000 0.936153 19.970188 31.084200
392  3 0.0000 0.936153 19.970188 42.986463
393  3 0.0000 4.680765  8.623445  7.279674
394  3 0.0000 4.680765  8.623445 19.181937
395  3 0.0000 4.680765  8.623445 31.084200
396  3 0.0000 4.680765  8.623445 42.986463
397  3 0.0000 4.680765 19.970188  7.279674
398  3 0.0000 4.680765 19.970188 19.181937
399  3 0.0000 4.680765 19.970188 31.084200
400  3 0.0000 4.680765 19.970188 42.986463
401  3 0.0000 2.808459  2.723298  4.622589
402  3 0.0000 2.808459  2.723298 16.524852
403  3 0.0000 2.808459  2.723298 28.427115
404  3 0.0000 2.808459  2.723298 40.329378
405  3 0.0000 2.808459 14.070041  4.622589
406  3 0.0000 2.808459 14.070041 16.524852
407  3 0.0000 2.808459 14.070041 28.427115
408  3 0.0000 2.808459 14.070041 40.329378
409  3 0.0000 6.553071  2.723298  4.622589
410  3 0.0000 6.553071  2.723298 16.524852
411  3 0.0000 6.553071  2.723298 28.427115
412  3 0.0000 6.553071  2.723298 40.329378
413  3 0.0000 6.553071 14.070041  4.622589
414  3 0.0000 6.553071 14.070041 16.524852
415  3 0.0000 6.553071 14.070041 28.427115
416  3 0.0000 6.553071 14.070041 40.329378
417  3 0.0000 2.808459  2.950074 10.573721
418  3 0.0000 2.808459  2.950074 22.475984
419  3 0.0000 2.808459  2.950074 34.378247
420  3 0.0000 2.808459  2.950074 46.280510
421  3 0.0000 2.808459 14.296817 10.573721
422  3 0.0000 2.808459 14.296817 22.475984
423  3 0.0000 2.808459 14.296817 34.378247
424  3 0.0000 2.808459 14.296817 46.280510
425  3 0.0000 6.553071  2.950074 10.573721
426  3 0.0000 6.553071  2.950074 22.475984
427  3 0.0000 6.553071  2.950074 34.378247
428  3 0.0000 6.553071  2.950074 46.280510
429  3 0.0000 6.553071 14.296817 10.573721
430  3 0.0000 6.553071 14.296817 22.475984
431  3 0.0000 6.553071 14.296817 34.378247
432  3 0.0000 6.553071 14.296817 46.280510
433  3 0.0000 0.936153  8.396669  1.328531
434  3 0.0000 0.936153  8.396669 13.230794
435  3 0.0000 0.936153  8.396669 25.133057
436  3 0.0000 0.936153  8.396669 37.035320
437  3 0.0000 0.936153 19.743412  1.328531
438  3 0.0000 0.936153 19.743412 13.230794
439  3 0.0000 0.936153 19.743412 25.133057
440  3 0.0000 0.936153 19.743412 37.035320
441  3 0.0000 4.680765  8.396669  1.328531
442  3 0.0000 4.680765  8.396669 13.230794
443  3 0.0000 4.680765  8.396669 25.133057
444  3 0.0000 4.680765  8.396669 37.035320
445  3 0.0000 4.680765 19.743412  1.328531
446  3 0.0000 4.680765 19.743412 13.230794
447  3 0.0000 4.680765 19.743412 25.133057
448  3 0.0000 4.680765 19.743412 37.035320
449  3 0.0000 0.936153  4.236828  7.175220
450  3 0.0000 0.936153  4.236828 19.077483
451  3 0.0000 0.936153  4.236828 30.979746
452  3 0.0000 0.936153  4.236828 42.882009
453  3 0.0000 0.936153 15.583571  7.175220
454  3 0.0000 0.936153 15.583571 19.077483
455  3 0.0000 0.936153 15.583571 30.979746
456  3 0.0000 0.936153 15.583571 42.882009
457  3 0.0000 4.680765  4.236828  7.175220
458  3 0.0000 4.680765  4.236828 19.077483
459  3 0.0000 4.680765  4.236828 30.979746
460  3 0.0000 4.680765  4.236828 42.882009
461  3 0.0000 4.680765 15.583571  7.175220
462  3 0.0000 4.680765 15.583571 19.077483
463  3 0.0000 4.680765 15.583571 30.979746
464  3 0.0000 4.680765 15.583571 42.882009
465  3 0.0000 2.808459  7.109915  4.727043
466  3 0.0000 2.808459  7.109915 16.629306
467  3 0.0000 2.808459  7.109915 28.531569
468  3 0.0000 2.808459  7.109915 40.433832
469  3 0.0000 2.808459 18.456658  4.727043
470  3 0.0000 2.808459 18.456658 16.629306
471  3 0.0000 2.808459 18.456658 28.531569
472  3 0.0000 2.808459 18.456658 40.433832
473  3 0.0000 6.553071  7.109915  4.727043
474  3 0.0000 6.553071  7.109915 16.629306
475  3 0.0000 6.553071  7.109915 28.531569
476  3 0.0000 6.553071  7.109915 40.433832
477  3 0.0000 6.553071 18.456658  4.727043
478  3 0.0000 6.553071 18.456658 16.629306
479  3 0.0000 6.553071 18.456658 28.531569
480  3 0.0000 6.553071 18.456658 40.433832
481  3 0.0000 2.808459  9.910200 10.678175
482  3 0.0000 2.808459  9.910200 22.580438
483  3 0.0000 2.808459  9.910200 34.482701
484  3 0.0000 2.808459  9.910200 46.384964
485  3 0.0000 2.808459 21.256943 10.678175
486  3 0.0000 2.808459 21.256943 22.580438
487  3 0.0000 2.808459 21.256943 34.482701
488  3 0.0000 2.808459 21.256943 46.384964
489  3 0.0000 6.553071  9.910200 10.678175
490  3 0.0000 6.553071  9.910200 22.580438
491  3 0.0000 6.553071  9.910200 34.482701
492  3 0.0000 6.553071  9.910200 46.384964
493  3 0.0000 6.553071 21.256943 10.678175
494  3 0.0000 6.553071 21.256943 22.580438
495  3 0.0000 6.553071 21.256943 34.482701
496  3 0.0000 6.553071 21.256943 46.384964
497  3 0.0000 0.936153  1.436543  1.224088
498  3 0.0000 0.936153  1.436543 13.126351
499  3 0.0000 0.936153  1.436543 25.028614
500  3 0.0000 0.936153  1.436543 36.930877
501  3 0.0000 0.936153 12.783286  1.224088
502  3 0.0000 0.936153 12.783286 13.126351
503  3 0.0000 0.936153 12.783286 25.028614
504  3 0.0000 0.936153 12.783286 36.930877
505  3 0.0000 4.680765  1.436543  1.224088
506  3 0.0000 4.680765  1.436543 13.126351
507  3 0.0000 4.680765  1.436543 25.028614
508  3 0.0000 4.680765  1.436543 36.930877
509  3 0.0000 4.680765 12.783286  1.224088
510  3 0.0000 4.680765 12.783286 13.126351
511  3 0.0000 4.680765 12.783286 25.028614
512  3 0.0000 4.680765 12.783286 36.930877

