Generated by pymatgen.io.lammps.data.LammpsData

192  atoms

  2  atom types

0.000000 9.665239  xlo xhi
0.000000 9.665239  ylo yhi
0.000000 30.605165  zlo zhi

Masses

1  127.6000
2   15.9994

Atoms

1    1 0.0000 4.698615 4.698615  3.825646
2    1 0.0000 4.698615 4.698615 11.476937
3    1 0.0000 4.698615 4.698615 19.128228
4    1 0.0000 4.698615 4.698615 26.779519
5    1 0.0000 4.698615 9.531234  3.825646
6    1 0.0000 4.698615 9.531234 11.476937
7    1 0.0000 4.698615 9.531234 19.128228
8    1 0.0000 4.698615 9.531234 26.779519
9    1 0.0000 9.531234 4.698615  3.825646
10   1 0.0000 9.531234 4.698615 11.476937
11   1 0.0000 9.531234 4.698615 19.128228
12   1 0.0000 9.531234 4.698615 26.779519
13   1 0.0000 9.531234 9.531234  3.825646
14   1 0.0000 9.531234 9.531234 11.476937
15   1 0.0000 9.531234 9.531234 19.128228
16   1 0.0000 9.531234 9.531234 26.779519
17   1 0.0000 2.550314 2.282305  5.738468
18   1 0.0000 2.550314 2.282305 13.389760
19   1 0.0000 2.550314 2.282305 21.041051
20   1 0.0000 2.550314 2.282305 28.692342
21   1 0.0000 2.550314 7.114925  5.738468
22   1 0.0000 2.550314 7.114925 13.389760
23   1 0.0000 2.550314 7.114925 21.041051
24   1 0.0000 2.550314 7.114925 28.692342
25   1 0.0000 7.382934 2.282305  5.738468
26   1 0.0000 7.382934 2.282305 13.389760
27   1 0.0000 7.382934 2.282305 21.041051
28   1 0.0000 7.382934 2.282305 28.692342
29   1 0.0000 7.382934 7.114925  5.738468
30   1 0.0000 7.382934 7.114925 13.389760
31   1 0.0000 7.382934 7.114925 21.041051
32   1 0.0000 7.382934 7.114925 28.692342
33   1 0.0000 2.282305 2.550314  1.912823
34   1 0.0000 2.282305 2.550314  9.564114
35   1 0.0000 2.282305 2.550314 17.215405
36   1 0.0000 2.282305 2.550314 24.866696
37   1 0.0000 2.282305 7.382934  1.912823
38   1 0.0000 2.282305 7.382934  9.564114
39   1 0.0000 2.282305 7.382934 17.215405
40   1 0.0000 2.282305 7.382934 24.866696
41   1 0.0000 7.114925 2.550314  1.912823
42   1 0.0000 7.114925 2.550314  9.564114
43   1 0.0000 7.114925 2.550314 17.215405
44   1 0.0000 7.114925 2.550314 24.866696
45   1 0.0000 7.114925 7.382934  1.912823
46   1 0.0000 7.114925 7.382934  9.564114
47   1 0.0000 7.114925 7.382934 17.215405
48   1 0.0000 7.114925 7.382934 24.866696
49   1 0.0000 0.134005 0.134005 -0.000000
50   1 0.0000 0.134005 0.134005  7.651291
51   1 0.0000 0.134005 0.134005 15.302582
52   1 0.0000 0.134005 0.134005 22.953874
53   1 0.0000 0.134005 4.966624 -0.000000
54   1 0.0000 0.134005 4.966624  7.651291
55   1 0.0000 0.134005 4.966624 15.302582
56   1 0.0000 0.134005 4.966624 22.953874
57   1 0.0000 4.966624 0.134005  0.000000
58   1 0.0000 4.966624 0.134005  7.651291
59   1 0.0000 4.966624 0.134005 15.302582
60   1 0.0000 4.966624 0.134005 22.953874
61   1 0.0000 4.966624 4.966624  0.000000
62   1 0.0000 4.966624 4.966624  7.651291
63   1 0.0000 4.966624 4.966624 15.302582
64   1 0.0000 4.966624 4.966624 22.953874
65   2 0.0000 3.575111 4.159639  2.411102
66   2 0.0000 3.575111 4.159639 10.062393
67   2 0.0000 3.575111 4.159639 17.713684
68   2 0.0000 3.575111 4.159639 25.364975
69   2 0.0000 3.575111 8.992259  2.411102
70   2 0.0000 3.575111 8.992259 10.062393
71   2 0.0000 3.575111 8.992259 17.713684
72   2 0.0000 3.575111 8.992259 25.364975
73   2 0.0000 8.407730 4.159639  2.411102
74   2 0.0000 8.407730 4.159639 10.062393
75   2 0.0000 8.407730 4.159639 17.713684
76   2 0.0000 8.407730 4.159639 25.364975
77   2 0.0000 8.407730 8.992259  2.411102
78   2 0.0000 8.407730 8.992259 10.062393
79   2 0.0000 8.407730 8.992259 17.713684
80   2 0.0000 8.407730 8.992259 25.364975
81   2 0.0000 1.257509 0.672980  6.236747
82   2 0.0000 1.257509 0.672980 13.888038
83   2 0.0000 1.257509 0.672980 21.539330
84   2 0.0000 1.257509 0.672980 29.190621
85   2 0.0000 1.257509 5.505600  6.236747
86   2 0.0000 1.257509 5.505600 13.888038
87   2 0.0000 1.257509 5.505600 21.539330
88   2 0.0000 1.257509 5.505600 29.190621
89   2 0.0000 6.090128 0.672980  6.236747
90   2 0.0000 6.090128 0.672980 13.888038
91   2 0.0000 6.090128 0.672980 21.539330
92   2 0.0000 6.090128 0.672980 29.190621
93   2 0.0000 6.090128 5.505600  6.236747
94   2 0.0000 6.090128 5.505600 13.888038
95   2 0.0000 6.090128 5.505600 21.539330
96   2 0.0000 6.090128 5.505600 29.190621
97   2 0.0000 4.159639 3.575111  5.240190
98   2 0.0000 4.159639 3.575111 12.891481
99   2 0.0000 4.159639 3.575111 20.542772
100  2 0.0000 4.159639 3.575111 28.194063
101  2 0.0000 4.159639 8.407730  5.240190
102  2 0.0000 4.159639 8.407730 12.891481
103  2 0.0000 4.159639 8.407730 20.542772
104  2 0.0000 4.159639 8.407730 28.194063
105  2 0.0000 8.992259 3.575111  5.240190
106  2 0.0000 8.992259 3.575111 12.891481
107  2 0.0000 8.992259 3.575111 20.542772
108  2 0.0000 8.992259 3.575111 28.194063
109  2 0.0000 8.992259 8.407730  5.240190
110  2 0.0000 8.992259 8.407730 12.891481
111  2 0.0000 8.992259 8.407730 20.542772
112  2 0.0000 8.992259 8.407730 28.194063
113  2 0.0000 1.743330 3.673818  0.498279
114  2 0.0000 1.743330 3.673818  8.149570
115  2 0.0000 1.743330 3.673818 15.800861
116  2 0.0000 1.743330 3.673818 23.452152
117  2 0.0000 1.743330 8.506438  0.498279
118  2 0.0000 1.743330 8.506438  8.149570
119  2 0.0000 1.743330 8.506438 15.800861
120  2 0.0000 1.743330 8.506438 23.452152
121  2 0.0000 6.575949 3.673818  0.498279
122  2 0.0000 6.575949 3.673818  8.149570
123  2 0.0000 6.575949 3.673818 15.800861
124  2 0.0000 6.575949 3.673818 23.452152
125  2 0.0000 6.575949 8.506438  0.498279
126  2 0.0000 6.575949 8.506438  8.149570
127  2 0.0000 6.575949 8.506438 15.800861
128  2 0.0000 6.575949 8.506438 23.452152
129  2 0.0000 0.672980 1.257509  1.414544
130  2 0.0000 0.672980 1.257509  9.065835
131  2 0.0000 0.672980 1.257509 16.717126
132  2 0.0000 0.672980 1.257509 24.368418
133  2 0.0000 0.672980 6.090128  1.414544
134  2 0.0000 0.672980 6.090128  9.065835
135  2 0.0000 0.672980 6.090128 16.717126
136  2 0.0000 0.672980 6.090128 24.368418
137  2 0.0000 5.505600 1.257509  1.414544
138  2 0.0000 5.505600 1.257509  9.065835
139  2 0.0000 5.505600 1.257509 16.717126
140  2 0.0000 5.505600 1.257509 24.368418
141  2 0.0000 5.505600 6.090128  1.414544
142  2 0.0000 5.505600 6.090128  9.065835
143  2 0.0000 5.505600 6.090128 16.717126
144  2 0.0000 5.505600 6.090128 24.368418
145  2 0.0000 1.158801 3.089290  3.327367
146  2 0.0000 1.158801 3.089290 10.978658
147  2 0.0000 1.158801 3.089290 18.629949
148  2 0.0000 1.158801 3.089290 26.281240
149  2 0.0000 1.158801 7.921909  3.327367
150  2 0.0000 1.158801 7.921909 10.978658
151  2 0.0000 1.158801 7.921909 18.629949
152  2 0.0000 1.158801 7.921909 26.281240
153  2 0.0000 5.991421 3.089290  3.327367
154  2 0.0000 5.991421 3.089290 10.978658
155  2 0.0000 5.991421 3.089290 18.629949
156  2 0.0000 5.991421 3.089290 26.281240
157  2 0.0000 5.991421 7.921909  3.327367
158  2 0.0000 5.991421 7.921909 10.978658
159  2 0.0000 5.991421 7.921909 18.629949
160  2 0.0000 5.991421 7.921909 26.281240
161  2 0.0000 3.673818 1.743330  7.153012
162  2 0.0000 3.673818 1.743330 14.804304
163  2 0.0000 3.673818 1.743330 22.455595
164  2 0.0000 3.673818 1.743330 30.106886
165  2 0.0000 3.673818 6.575949  7.153012
166  2 0.0000 3.673818 6.575949 14.804304
167  2 0.0000 3.673818 6.575949 22.455595
168  2 0.0000 3.673818 6.575949 30.106886
169  2 0.0000 8.506438 1.743330  7.153012
170  2 0.0000 8.506438 1.743330 14.804304
171  2 0.0000 8.506438 1.743330 22.455595
172  2 0.0000 8.506438 1.743330 30.106886
173  2 0.0000 8.506438 6.575949  7.153012
174  2 0.0000 8.506438 6.575949 14.804304
175  2 0.0000 8.506438 6.575949 22.455595
176  2 0.0000 8.506438 6.575949 30.106886
177  2 0.0000 3.089290 1.158801  4.323924
178  2 0.0000 3.089290 1.158801 11.975216
179  2 0.0000 3.089290 1.158801 19.626507
180  2 0.0000 3.089290 1.158801 27.277798
181  2 0.0000 3.089290 5.991421  4.323924
182  2 0.0000 3.089290 5.991421 11.975216
183  2 0.0000 3.089290 5.991421 19.626507
184  2 0.0000 3.089290 5.991421 27.277798
185  2 0.0000 7.921909 1.158801  4.323924
186  2 0.0000 7.921909 1.158801 11.975216
187  2 0.0000 7.921909 1.158801 19.626507
188  2 0.0000 7.921909 1.158801 27.277798
189  2 0.0000 7.921909 5.991421  4.323924
190  2 0.0000 7.921909 5.991421 11.975216
191  2 0.0000 7.921909 5.991421 19.626507
192  2 0.0000 7.921909 5.991421 27.277798

