Generated by pymatgen.io.lammps.data.LammpsData

1152  atoms

   2  atom types

0.000000 19.330478  xlo xhi
0.000000 19.330478  ylo yhi
0.000000 45.907747  zlo zhi

Masses

1  127.6000
2   15.9994

Atoms

1     1 0.0000  4.698615  4.698615  3.825646
2     1 0.0000  4.698615  4.698615 11.476937
3     1 0.0000  4.698615  4.698615 19.128228
4     1 0.0000  4.698615  4.698615 26.779519
5     1 0.0000  4.698615  4.698615 34.430810
6     1 0.0000  4.698615  4.698615 42.082102
7     1 0.0000  4.698615  9.531234  3.825646
8     1 0.0000  4.698615  9.531234 11.476937
9     1 0.0000  4.698615  9.531234 19.128228
10    1 0.0000  4.698615  9.531234 26.779519
11    1 0.0000  4.698615  9.531234 34.430810
12    1 0.0000  4.698615  9.531234 42.082102
13    1 0.0000  4.698615 14.363854  3.825646
14    1 0.0000  4.698615 14.363854 11.476937
15    1 0.0000  4.698615 14.363854 19.128228
16    1 0.0000  4.698615 14.363854 26.779519
17    1 0.0000  4.698615 14.363854 34.430810
18    1 0.0000  4.698615 14.363854 42.082102
19    1 0.0000  4.698615 19.196473  3.825646
20    1 0.0000  4.698615 19.196473 11.476937
21    1 0.0000  4.698615 19.196473 19.128228
22    1 0.0000  4.698615 19.196473 26.779519
23    1 0.0000  4.698615 19.196473 34.430810
24    1 0.0000  4.698615 19.196473 42.082102
25    1 0.0000  9.531234  4.698615  3.825646
26    1 0.0000  9.531234  4.698615 11.476937
27    1 0.0000  9.531234  4.698615 19.128228
28    1 0.0000  9.531234  4.698615 26.779519
29    1 0.0000  9.531234  4.698615 34.430810
30    1 0.0000  9.531234  4.698615 42.082102
31    1 0.0000  9.531234  9.531234  3.825646
32    1 0.0000  9.531234  9.531234 11.476937
33    1 0.0000  9.531234  9.531234 19.128228
34    1 0.0000  9.531234  9.531234 26.779519
35    1 0.0000  9.531234  9.531234 34.430810
36    1 0.0000  9.531234  9.531234 42.082102
37    1 0.0000  9.531234 14.363854  3.825646
38    1 0.0000  9.531234 14.363854 11.476937
39    1 0.0000  9.531234 14.363854 19.128228
40    1 0.0000  9.531234 14.363854 26.779519
41    1 0.0000  9.531234 14.363854 34.430810
42    1 0.0000  9.531234 14.363854 42.082102
43    1 0.0000  9.531234 19.196473  3.825646
44    1 0.0000  9.531234 19.196473 11.476937
45    1 0.0000  9.531234 19.196473 19.128228
46    1 0.0000  9.531234 19.196473 26.779519
47    1 0.0000  9.531234 19.196473 34.430810
48    1 0.0000  9.531234 19.196473 42.082102
49    1 0.0000 14.363854  4.698615  3.825646
50    1 0.0000 14.363854  4.698615 11.476937
51    1 0.0000 14.363854  4.698615 19.128228
52    1 0.0000 14.363854  4.698615 26.779519
53    1 0.0000 14.363854  4.698615 34.430810
54    1 0.0000 14.363854  4.698615 42.082102
55    1 0.0000 14.363854  9.531234  3.825646
56    1 0.0000 14.363854  9.531234 11.476937
57    1 0.0000 14.363854  9.531234 19.128228
58    1 0.0000 14.363854  9.531234 26.779519
59    1 0.0000 14.363854  9.531234 34.430810
60    1 0.0000 14.363854  9.531234 42.082102
61    1 0.0000 14.363854 14.363854  3.825646
62    1 0.0000 14.363854 14.363854 11.476937
63    1 0.0000 14.363854 14.363854 19.128228
64    1 0.0000 14.363854 14.363854 26.779519
65    1 0.0000 14.363854 14.363854 34.430810
66    1 0.0000 14.363854 14.363854 42.082102
67    1 0.0000 14.363854 19.196473  3.825646
68    1 0.0000 14.363854 19.196473 11.476937
69    1 0.0000 14.363854 19.196473 19.128228
70    1 0.0000 14.363854 19.196473 26.779519
71    1 0.0000 14.363854 19.196473 34.430810
72    1 0.0000 14.363854 19.196473 42.082102
73    1 0.0000 19.196473  4.698615  3.825646
74    1 0.0000 19.196473  4.698615 11.476937
75    1 0.0000 19.196473  4.698615 19.128228
76    1 0.0000 19.196473  4.698615 26.779519
77    1 0.0000 19.196473  4.698615 34.430810
78    1 0.0000 19.196473  4.698615 42.082102
79    1 0.0000 19.196473  9.531234  3.825646
80    1 0.0000 19.196473  9.531234 11.476937
81    1 0.0000 19.196473  9.531234 19.128228
82    1 0.0000 19.196473  9.531234 26.779519
83    1 0.0000 19.196473  9.531234 34.430810
84    1 0.0000 19.196473  9.531234 42.082102
85    1 0.0000 19.196473 14.363854  3.825646
86    1 0.0000 19.196473 14.363854 11.476937
87    1 0.0000 19.196473 14.363854 19.128228
88    1 0.0000 19.196473 14.363854 26.779519
89    1 0.0000 19.196473 14.363854 34.430810
90    1 0.0000 19.196473 14.363854 42.082102
91    1 0.0000 19.196473 19.196473  3.825646
92    1 0.0000 19.196473 19.196473 11.476937
93    1 0.0000 19.196473 19.196473 19.128228
94    1 0.0000 19.196473 19.196473 26.779519
95    1 0.0000 19.196473 19.196473 34.430810
96    1 0.0000 19.196473 19.196473 42.082102
97    1 0.0000  2.550314  2.282305  5.738468
98    1 0.0000  2.550314  2.282305 13.389760
99    1 0.0000  2.550314  2.282305 21.041051
100   1 0.0000  2.550314  2.282305 28.692342
101   1 0.0000  2.550314  2.282305 36.343633
102   1 0.0000  2.550314  2.282305 43.994925
103   1 0.0000  2.550314  7.114925  5.738468
104   1 0.0000  2.550314  7.114925 13.389760
105   1 0.0000  2.550314  7.114925 21.041051
106   1 0.0000  2.550314  7.114925 28.692342
107   1 0.0000  2.550314  7.114925 36.343633
108   1 0.0000  2.550314  7.114925 43.994925
109   1 0.0000  2.550314 11.947544  5.738468
110   1 0.0000  2.550314 11.947544 13.389760
111   1 0.0000  2.550314 11.947544 21.041051
112   1 0.0000  2.550314 11.947544 28.692342
113   1 0.0000  2.550314 11.947544 36.343633
114   1 0.0000  2.550314 11.947544 43.994925
115   1 0.0000  2.550314 16.780164  5.738468
116   1 0.0000  2.550314 16.780164 13.389760
117   1 0.0000  2.550314 16.780164 21.041051
118   1 0.0000  2.550314 16.780164 28.692342
119   1 0.0000  2.550314 16.780164 36.343633
120   1 0.0000  2.550314 16.780164 43.994925
121   1 0.0000  7.382934  2.282305  5.738468
122   1 0.0000  7.382934  2.282305 13.389760
123   1 0.0000  7.382934  2.282305 21.041051
124   1 0.0000  7.382934  2.282305 28.692342
125   1 0.0000  7.382934  2.282305 36.343633
126   1 0.0000  7.382934  2.282305 43.994925
127   1 0.0000  7.382934  7.114925  5.738468
128   1 0.0000  7.382934  7.114925 13.389760
129   1 0.0000  7.382934  7.114925 21.041051
130   1 0.0000  7.382934  7.114925 28.692342
131   1 0.0000  7.382934  7.114925 36.343633
132   1 0.0000  7.382934  7.114925 43.994925
133   1 0.0000  7.382934 11.947544  5.738468
134   1 0.0000  7.382934 11.947544 13.389760
135   1 0.0000  7.382934 11.947544 21.041051
136   1 0.0000  7.382934 11.947544 28.692342
137   1 0.0000  7.382934 11.947544 36.343633
138   1 0.0000  7.382934 11.947544 43.994925
139   1 0.0000  7.382934 16.780164  5.738468
140   1 0.0000  7.382934 16.780164 13.389760
141   1 0.0000  7.382934 16.780164 21.041051
142   1 0.0000  7.382934 16.780164 28.692342
143   1 0.0000  7.382934 16.780164 36.343633
144   1 0.0000  7.382934 16.780164 43.994925
145   1 0.0000 12.215553  2.282305  5.738468
146   1 0.0000 12.215553  2.282305 13.389760
147   1 0.0000 12.215553  2.282305 21.041051
148   1 0.0000 12.215553  2.282305 28.692342
149   1 0.0000 12.215553  2.282305 36.343633
150   1 0.0000 12.215553  2.282305 43.994925
151   1 0.0000 12.215553  7.114925  5.738468
152   1 0.0000 12.215553  7.114925 13.389760
153   1 0.0000 12.215553  7.114925 21.041051
154   1 0.0000 12.215553  7.114925 28.692342
155   1 0.0000 12.215553  7.114925 36.343633
156   1 0.0000 12.215553  7.114925 43.994925
157   1 0.0000 12.215553 11.947544  5.738468
158   1 0.0000 12.215553 11.947544 13.389760
159   1 0.0000 12.215553 11.947544 21.041051
160   1 0.0000 12.215553 11.947544 28.692342
161   1 0.0000 12.215553 11.947544 36.343633
162   1 0.0000 12.215553 11.947544 43.994925
163   1 0.0000 12.215553 16.780164  5.738468
164   1 0.0000 12.215553 16.780164 13.389760
165   1 0.0000 12.215553 16.780164 21.041051
166   1 0.0000 12.215553 16.780164 28.692342
167   1 0.0000 12.215553 16.780164 36.343633
168   1 0.0000 12.215553 16.780164 43.994925
169   1 0.0000 17.048173  2.282305  5.738468
170   1 0.0000 17.048173  2.282305 13.389760
171   1 0.0000 17.048173  2.282305 21.041051
172   1 0.0000 17.048173  2.282305 28.692342
173   1 0.0000 17.048173  2.282305 36.343633
174   1 0.0000 17.048173  2.282305 43.994925
175   1 0.0000 17.048173  7.114925  5.738468
176   1 0.0000 17.048173  7.114925 13.389760
177   1 0.0000 17.048173  7.114925 21.041051
178   1 0.0000 17.048173  7.114925 28.692342
179   1 0.0000 17.048173  7.114925 36.343633
180   1 0.0000 17.048173  7.114925 43.994925
181   1 0.0000 17.048173 11.947544  5.738468
182   1 0.0000 17.048173 11.947544 13.389760
183   1 0.0000 17.048173 11.947544 21.041051
184   1 0.0000 17.048173 11.947544 28.692342
185   1 0.0000 17.048173 11.947544 36.343633
186   1 0.0000 17.048173 11.947544 43.994925
187   1 0.0000 17.048173 16.780164  5.738468
188   1 0.0000 17.048173 16.780164 13.389760
189   1 0.0000 17.048173 16.780164 21.041051
190   1 0.0000 17.048173 16.780164 28.692342
191   1 0.0000 17.048173 16.780164 36.343633
192   1 0.0000 17.048173 16.780164 43.994925
193   1 0.0000  2.282305  2.550314  1.912823
194   1 0.0000  2.282305  2.550314  9.564114
195   1 0.0000  2.282305  2.550314 17.215405
196   1 0.0000  2.282305  2.550314 24.866696
197   1 0.0000  2.282305  2.550314 32.517988
198   1 0.0000  2.282305  2.550314 40.169279
199   1 0.0000  2.282305  7.382934  1.912823
200   1 0.0000  2.282305  7.382934  9.564114
201   1 0.0000  2.282305  7.382934 17.215405
202   1 0.0000  2.282305  7.382934 24.866696
203   1 0.0000  2.282305  7.382934 32.517988
204   1 0.0000  2.282305  7.382934 40.169279
205   1 0.0000  2.282305 12.215553  1.912823
206   1 0.0000  2.282305 12.215553  9.564114
207   1 0.0000  2.282305 12.215553 17.215405
208   1 0.0000  2.282305 12.215553 24.866696
209   1 0.0000  2.282305 12.215553 32.517988
210   1 0.0000  2.282305 12.215553 40.169279
211   1 0.0000  2.282305 17.048173  1.912823
212   1 0.0000  2.282305 17.048173  9.564114
213   1 0.0000  2.282305 17.048173 17.215405
214   1 0.0000  2.282305 17.048173 24.866696
215   1 0.0000  2.282305 17.048173 32.517988
216   1 0.0000  2.282305 17.048173 40.169279
217   1 0.0000  7.114925  2.550314  1.912823
218   1 0.0000  7.114925  2.550314  9.564114
219   1 0.0000  7.114925  2.550314 17.215405
220   1 0.0000  7.114925  2.550314 24.866696
221   1 0.0000  7.114925  2.550314 32.517988
222   1 0.0000  7.114925  2.550314 40.169279
223   1 0.0000  7.114925  7.382934  1.912823
224   1 0.0000  7.114925  7.382934  9.564114
225   1 0.0000  7.114925  7.382934 17.215405
226   1 0.0000  7.114925  7.382934 24.866696
227   1 0.0000  7.114925  7.382934 32.517988
228   1 0.0000  7.114925  7.382934 40.169279
229   1 0.0000  7.114925 12.215553  1.912823
230   1 0.0000  7.114925 12.215553  9.564114
231   1 0.0000  7.114925 12.215553 17.215405
232   1 0.0000  7.114925 12.215553 24.866696
233   1 0.0000  7.114925 12.215553 32.517988
234   1 0.0000  7.114925 12.215553 40.169279
235   1 0.0000  7.114925 17.048173  1.912823
236   1 0.0000  7.114925 17.048173  9.564114
237   1 0.0000  7.114925 17.048173 17.215405
238   1 0.0000  7.114925 17.048173 24.866696
239   1 0.0000  7.114925 17.048173 32.517988
240   1 0.0000  7.114925 17.048173 40.169279
241   1 0.0000 11.947544  2.550314  1.912823
242   1 0.0000 11.947544  2.550314  9.564114
243   1 0.0000 11.947544  2.550314 17.215405
244   1 0.0000 11.947544  2.550314 24.866696
245   1 0.0000 11.947544  2.550314 32.517988
246   1 0.0000 11.947544  2.550314 40.169279
247   1 0.0000 11.947544  7.382934  1.912823
248   1 0.0000 11.947544  7.382934  9.564114
249   1 0.0000 11.947544  7.382934 17.215405
250   1 0.0000 11.947544  7.382934 24.866696
251   1 0.0000 11.947544  7.382934 32.517988
252   1 0.0000 11.947544  7.382934 40.169279
253   1 0.0000 11.947544 12.215553  1.912823
254   1 0.0000 11.947544 12.215553  9.564114
255   1 0.0000 11.947544 12.215553 17.215405
256   1 0.0000 11.947544 12.215553 24.866696
257   1 0.0000 11.947544 12.215553 32.517988
258   1 0.0000 11.947544 12.215553 40.169279
259   1 0.0000 11.947544 17.048173  1.912823
260   1 0.0000 11.947544 17.048173  9.564114
261   1 0.0000 11.947544 17.048173 17.215405
262   1 0.0000 11.947544 17.048173 24.866696
263   1 0.0000 11.947544 17.048173 32.517988
264   1 0.0000 11.947544 17.048173 40.169279
265   1 0.0000 16.780164  2.550314  1.912823
266   1 0.0000 16.780164  2.550314  9.564114
267   1 0.0000 16.780164  2.550314 17.215405
268   1 0.0000 16.780164  2.550314 24.866696
269   1 0.0000 16.780164  2.550314 32.517988
270   1 0.0000 16.780164  2.550314 40.169279
271   1 0.0000 16.780164  7.382934  1.912823
272   1 0.0000 16.780164  7.382934  9.564114
273   1 0.0000 16.780164  7.382934 17.215405
274   1 0.0000 16.780164  7.382934 24.866696
275   1 0.0000 16.780164  7.382934 32.517988
276   1 0.0000 16.780164  7.382934 40.169279
277   1 0.0000 16.780164 12.215553  1.912823
278   1 0.0000 16.780164 12.215553  9.564114
279   1 0.0000 16.780164 12.215553 17.215405
280   1 0.0000 16.780164 12.215553 24.866696
281   1 0.0000 16.780164 12.215553 32.517988
282   1 0.0000 16.780164 12.215553 40.169279
283   1 0.0000 16.780164 17.048173  1.912823
284   1 0.0000 16.780164 17.048173  9.564114
285   1 0.0000 16.780164 17.048173 17.215405
286   1 0.0000 16.780164 17.048173 24.866696
287   1 0.0000 16.780164 17.048173 32.517988
288   1 0.0000 16.780164 17.048173 40.169279
289   1 0.0000  0.134005  0.134005  0.000000
290   1 0.0000  0.134005  0.134005  7.651291
291   1 0.0000  0.134005  0.134005 15.302582
292   1 0.0000  0.134005  0.134005 22.953874
293   1 0.0000  0.134005  0.134005 30.605165
294   1 0.0000  0.134005  0.134005 38.256456
295   1 0.0000  0.134005  4.966624  0.000000
296   1 0.0000  0.134005  4.966624  7.651291
297   1 0.0000  0.134005  4.966624 15.302582
298   1 0.0000  0.134005  4.966624 22.953874
299   1 0.0000  0.134005  4.966624 30.605165
300   1 0.0000  0.134005  4.966624 38.256456
301   1 0.0000  0.134005  9.799244  0.000000
302   1 0.0000  0.134005  9.799244  7.651291
303   1 0.0000  0.134005  9.799244 15.302582
304   1 0.0000  0.134005  9.799244 22.953874
305   1 0.0000  0.134005  9.799244 30.605165
306   1 0.0000  0.134005  9.799244 38.256456
307   1 0.0000  0.134005 14.631863  0.000000
308   1 0.0000  0.134005 14.631863  7.651291
309   1 0.0000  0.134005 14.631863 15.302582
310   1 0.0000  0.134005 14.631863 22.953874
311   1 0.0000  0.134005 14.631863 30.605165
312   1 0.0000  0.134005 14.631863 38.256456
313   1 0.0000  4.966624  0.134005  0.000000
314   1 0.0000  4.966624  0.134005  7.651291
315   1 0.0000  4.966624  0.134005 15.302582
316   1 0.0000  4.966624  0.134005 22.953874
317   1 0.0000  4.966624  0.134005 30.605165
318   1 0.0000  4.966624  0.134005 38.256456
319   1 0.0000  4.966624  4.966624  0.000000
320   1 0.0000  4.966624  4.966624  7.651291
321   1 0.0000  4.966624  4.966624 15.302582
322   1 0.0000  4.966624  4.966624 22.953874
323   1 0.0000  4.966624  4.966624 30.605165
324   1 0.0000  4.966624  4.966624 38.256456
325   1 0.0000  4.966624  9.799244  0.000000
326   1 0.0000  4.966624  9.799244  7.651291
327   1 0.0000  4.966624  9.799244 15.302582
328   1 0.0000  4.966624  9.799244 22.953874
329   1 0.0000  4.966624  9.799244 30.605165
330   1 0.0000  4.966624  9.799244 38.256456
331   1 0.0000  4.966624 14.631863  0.000000
332   1 0.0000  4.966624 14.631863  7.651291
333   1 0.0000  4.966624 14.631863 15.302582
334   1 0.0000  4.966624 14.631863 22.953874
335   1 0.0000  4.966624 14.631863 30.605165
336   1 0.0000  4.966624 14.631863 38.256456
337   1 0.0000  9.799244  0.134005  0.000000
338   1 0.0000  9.799244  0.134005  7.651291
339   1 0.0000  9.799244  0.134005 15.302582
340   1 0.0000  9.799244  0.134005 22.953874
341   1 0.0000  9.799244  0.134005 30.605165
342   1 0.0000  9.799244  0.134005 38.256456
343   1 0.0000  9.799244  4.966624  0.000000
344   1 0.0000  9.799244  4.966624  7.651291
345   1 0.0000  9.799244  4.966624 15.302582
346   1 0.0000  9.799244  4.966624 22.953874
347   1 0.0000  9.799244  4.966624 30.605165
348   1 0.0000  9.799244  4.966624 38.256456
349   1 0.0000  9.799244  9.799244  0.000000
350   1 0.0000  9.799244  9.799244  7.651291
351   1 0.0000  9.799244  9.799244 15.302582
352   1 0.0000  9.799244  9.799244 22.953874
353   1 0.0000  9.799244  9.799244 30.605165
354   1 0.0000  9.799244  9.799244 38.256456
355   1 0.0000  9.799244 14.631863  0.000000
356   1 0.0000  9.799244 14.631863  7.651291
357   1 0.0000  9.799244 14.631863 15.302582
358   1 0.0000  9.799244 14.631863 22.953874
359   1 0.0000  9.799244 14.631863 30.605165
360   1 0.0000  9.799244 14.631863 38.256456
361   1 0.0000 14.631863  0.134005  0.000000
362   1 0.0000 14.631863  0.134005  7.651291
363   1 0.0000 14.631863  0.134005 15.302582
364   1 0.0000 14.631863  0.134005 22.953874
365   1 0.0000 14.631863  0.134005 30.605165
366   1 0.0000 14.631863  0.134005 38.256456
367   1 0.0000 14.631863  4.966624  0.000000
368   1 0.0000 14.631863  4.966624  7.651291
369   1 0.0000 14.631863  4.966624 15.302582
370   1 0.0000 14.631863  4.966624 22.953874
371   1 0.0000 14.631863  4.966624 30.605165
372   1 0.0000 14.631863  4.966624 38.256456
373   1 0.0000 14.631863  9.799244 -0.000000
374   1 0.0000 14.631863  9.799244  7.651291
375   1 0.0000 14.631863  9.799244 15.302582
376   1 0.0000 14.631863  9.799244 22.953874
377   1 0.0000 14.631863  9.799244 30.605165
378   1 0.0000 14.631863  9.799244 38.256456
379   1 0.0000 14.631863 14.631863  0.000000
380   1 0.0000 14.631863 14.631863  7.651291
381   1 0.0000 14.631863 14.631863 15.302582
382   1 0.0000 14.631863 14.631863 22.953874
383   1 0.0000 14.631863 14.631863 30.605165
384   1 0.0000 14.631863 14.631863 38.256456
385   2 0.0000  3.575111  4.159639  2.411102
386   2 0.0000  3.575111  4.159639 10.062393
387   2 0.0000  3.575111  4.159639 17.713684
388   2 0.0000  3.575111  4.159639 25.364975
389   2 0.0000  3.575111  4.159639 33.016266
390   2 0.0000  3.575111  4.159639 40.667558
391   2 0.0000  3.575111  8.992259  2.411102
392   2 0.0000  3.575111  8.992259 10.062393
393   2 0.0000  3.575111  8.992259 17.713684
394   2 0.0000  3.575111  8.992259 25.364975
395   2 0.0000  3.575111  8.992259 33.016266
396   2 0.0000  3.575111  8.992259 40.667558
397   2 0.0000  3.575111 13.824878  2.411102
398   2 0.0000  3.575111 13.824878 10.062393
399   2 0.0000  3.575111 13.824878 17.713684
400   2 0.0000  3.575111 13.824878 25.364975
401   2 0.0000  3.575111 13.824878 33.016266
402   2 0.0000  3.575111 13.824878 40.667558
403   2 0.0000  3.575111 18.657498  2.411102
404   2 0.0000  3.575111 18.657498 10.062393
405   2 0.0000  3.575111 18.657498 17.713684
406   2 0.0000  3.575111 18.657498 25.364975
407   2 0.0000  3.575111 18.657498 33.016266
408   2 0.0000  3.575111 18.657498 40.667558
409   2 0.0000  8.407730  4.159639  2.411102
410   2 0.0000  8.407730  4.159639 10.062393
411   2 0.0000  8.407730  4.159639 17.713684
412   2 0.0000  8.407730  4.159639 25.364975
413   2 0.0000  8.407730  4.159639 33.016266
414   2 0.0000  8.407730  4.159639 40.667558
415   2 0.0000  8.407730  8.992259  2.411102
416   2 0.0000  8.407730  8.992259 10.062393
417   2 0.0000  8.407730  8.992259 17.713684
418   2 0.0000  8.407730  8.992259 25.364975
419   2 0.0000  8.407730  8.992259 33.016266
420   2 0.0000  8.407730  8.992259 40.667558
421   2 0.0000  8.407730 13.824878  2.411102
422   2 0.0000  8.407730 13.824878 10.062393
423   2 0.0000  8.407730 13.824878 17.713684
424   2 0.0000  8.407730 13.824878 25.364975
425   2 0.0000  8.407730 13.824878 33.016266
426   2 0.0000  8.407730 13.824878 40.667558
427   2 0.0000  8.407730 18.657498  2.411102
428   2 0.0000  8.407730 18.657498 10.062393
429   2 0.0000  8.407730 18.657498 17.713684
430   2 0.0000  8.407730 18.657498 25.364975
431   2 0.0000  8.407730 18.657498 33.016266
432   2 0.0000  8.407730 18.657498 40.667558
433   2 0.0000 13.240350  4.159639  2.411102
434   2 0.0000 13.240350  4.159639 10.062393
435   2 0.0000 13.240350  4.159639 17.713684
436   2 0.0000 13.240350  4.159639 25.364975
437   2 0.0000 13.240350  4.159639 33.016266
438   2 0.0000 13.240350  4.159639 40.667558
439   2 0.0000 13.240350  8.992259  2.411102
440   2 0.0000 13.240350  8.992259 10.062393
441   2 0.0000 13.240350  8.992259 17.713684
442   2 0.0000 13.240350  8.992259 25.364975
443   2 0.0000 13.240350  8.992259 33.016266
444   2 0.0000 13.240350  8.992259 40.667558
445   2 0.0000 13.240350 13.824878  2.411102
446   2 0.0000 13.240350 13.824878 10.062393
447   2 0.0000 13.240350 13.824878 17.713684
448   2 0.0000 13.240350 13.824878 25.364975
449   2 0.0000 13.240350 13.824878 33.016266
450   2 0.0000 13.240350 13.824878 40.667558
451   2 0.0000 13.240350 18.657498  2.411102
452   2 0.0000 13.240350 18.657498 10.062393
453   2 0.0000 13.240350 18.657498 17.713684
454   2 0.0000 13.240350 18.657498 25.364975
455   2 0.0000 13.240350 18.657498 33.016266
456   2 0.0000 13.240350 18.657498 40.667558
457   2 0.0000 18.072969  4.159639  2.411102
458   2 0.0000 18.072969  4.159639 10.062393
459   2 0.0000 18.072969  4.159639 17.713684
460   2 0.0000 18.072969  4.159639 25.364975
461   2 0.0000 18.072969  4.159639 33.016266
462   2 0.0000 18.072969  4.159639 40.667558
463   2 0.0000 18.072969  8.992259  2.411102
464   2 0.0000 18.072969  8.992259 10.062393
465   2 0.0000 18.072969  8.992259 17.713684
466   2 0.0000 18.072969  8.992259 25.364975
467   2 0.0000 18.072969  8.992259 33.016266
468   2 0.0000 18.072969  8.992259 40.667558
469   2 0.0000 18.072969 13.824878  2.411102
470   2 0.0000 18.072969 13.824878 10.062393
471   2 0.0000 18.072969 13.824878 17.713684
472   2 0.0000 18.072969 13.824878 25.364975
473   2 0.0000 18.072969 13.824878 33.016266
474   2 0.0000 18.072969 13.824878 40.667558
475   2 0.0000 18.072969 18.657498  2.411102
476   2 0.0000 18.072969 18.657498 10.062393
477   2 0.0000 18.072969 18.657498 17.713684
478   2 0.0000 18.072969 18.657498 25.364975
479   2 0.0000 18.072969 18.657498 33.016266
480   2 0.0000 18.072969 18.657498 40.667558
481   2 0.0000  1.257509  0.672980  6.236747
482   2 0.0000  1.257509  0.672980 13.888038
483   2 0.0000  1.257509  0.672980 21.539330
484   2 0.0000  1.257509  0.672980 29.190621
485   2 0.0000  1.257509  0.672980 36.841912
486   2 0.0000  1.257509  0.672980 44.493203
487   2 0.0000  1.257509  5.505600  6.236747
488   2 0.0000  1.257509  5.505600 13.888038
489   2 0.0000  1.257509  5.505600 21.539330
490   2 0.0000  1.257509  5.505600 29.190621
491   2 0.0000  1.257509  5.505600 36.841912
492   2 0.0000  1.257509  5.505600 44.493203
493   2 0.0000  1.257509 10.338219  6.236747
494   2 0.0000  1.257509 10.338219 13.888038
495   2 0.0000  1.257509 10.338219 21.539330
496   2 0.0000  1.257509 10.338219 29.190621
497   2 0.0000  1.257509 10.338219 36.841912
498   2 0.0000  1.257509 10.338219 44.493203
499   2 0.0000  1.257509 15.170839  6.236747
500   2 0.0000  1.257509 15.170839 13.888038
501   2 0.0000  1.257509 15.170839 21.539330
502   2 0.0000  1.257509 15.170839 29.190621
503   2 0.0000  1.257509 15.170839 36.841912
504   2 0.0000  1.257509 15.170839 44.493203
505   2 0.0000  6.090128  0.672980  6.236747
506   2 0.0000  6.090128  0.672980 13.888038
507   2 0.0000  6.090128  0.672980 21.539330
508   2 0.0000  6.090128  0.672980 29.190621
509   2 0.0000  6.090128  0.672980 36.841912
510   2 0.0000  6.090128  0.672980 44.493203
511   2 0.0000  6.090128  5.505600  6.236747
512   2 0.0000  6.090128  5.505600 13.888038
513   2 0.0000  6.090128  5.505600 21.539330
514   2 0.0000  6.090128  5.505600 29.190621
515   2 0.0000  6.090128  5.505600 36.841912
516   2 0.0000  6.090128  5.505600 44.493203
517   2 0.0000  6.090128 10.338219  6.236747
518   2 0.0000  6.090128 10.338219 13.888038
519   2 0.0000  6.090128 10.338219 21.539330
520   2 0.0000  6.090128 10.338219 29.190621
521   2 0.0000  6.090128 10.338219 36.841912
522   2 0.0000  6.090128 10.338219 44.493203
523   2 0.0000  6.090128 15.170839  6.236747
524   2 0.0000  6.090128 15.170839 13.888038
525   2 0.0000  6.090128 15.170839 21.539330
526   2 0.0000  6.090128 15.170839 29.190621
527   2 0.0000  6.090128 15.170839 36.841912
528   2 0.0000  6.090128 15.170839 44.493203
529   2 0.0000 10.922748  0.672980  6.236747
530   2 0.0000 10.922748  0.672980 13.888038
531   2 0.0000 10.922748  0.672980 21.539330
532   2 0.0000 10.922748  0.672980 29.190621
533   2 0.0000 10.922748  0.672980 36.841912
534   2 0.0000 10.922748  0.672980 44.493203
535   2 0.0000 10.922748  5.505600  6.236747
536   2 0.0000 10.922748  5.505600 13.888038
537   2 0.0000 10.922748  5.505600 21.539330
538   2 0.0000 10.922748  5.505600 29.190621
539   2 0.0000 10.922748  5.505600 36.841912
540   2 0.0000 10.922748  5.505600 44.493203
541   2 0.0000 10.922748 10.338219  6.236747
542   2 0.0000 10.922748 10.338219 13.888038
543   2 0.0000 10.922748 10.338219 21.539330
544   2 0.0000 10.922748 10.338219 29.190621
545   2 0.0000 10.922748 10.338219 36.841912
546   2 0.0000 10.922748 10.338219 44.493203
547   2 0.0000 10.922748 15.170839  6.236747
548   2 0.0000 10.922748 15.170839 13.888038
549   2 0.0000 10.922748 15.170839 21.539330
550   2 0.0000 10.922748 15.170839 29.190621
551   2 0.0000 10.922748 15.170839 36.841912
552   2 0.0000 10.922748 15.170839 44.493203
553   2 0.0000 15.755367  0.672980  6.236747
554   2 0.0000 15.755367  0.672980 13.888038
555   2 0.0000 15.755367  0.672980 21.539330
556   2 0.0000 15.755367  0.672980 29.190621
557   2 0.0000 15.755367  0.672980 36.841912
558   2 0.0000 15.755367  0.672980 44.493203
559   2 0.0000 15.755367  5.505600  6.236747
560   2 0.0000 15.755367  5.505600 13.888038
561   2 0.0000 15.755367  5.505600 21.539330
562   2 0.0000 15.755367  5.505600 29.190621
563   2 0.0000 15.755367  5.505600 36.841912
564   2 0.0000 15.755367  5.505600 44.493203
565   2 0.0000 15.755367 10.338219  6.236747
566   2 0.0000 15.755367 10.338219 13.888038
567   2 0.0000 15.755367 10.338219 21.539330
568   2 0.0000 15.755367 10.338219 29.190621
569   2 0.0000 15.755367 10.338219 36.841912
570   2 0.0000 15.755367 10.338219 44.493203
571   2 0.0000 15.755367 15.170839  6.236747
572   2 0.0000 15.755367 15.170839 13.888038
573   2 0.0000 15.755367 15.170839 21.539330
574   2 0.0000 15.755367 15.170839 29.190621
575   2 0.0000 15.755367 15.170839 36.841912
576   2 0.0000 15.755367 15.170839 44.493203
577   2 0.0000  4.159639  3.575111  5.240190
578   2 0.0000  4.159639  3.575111 12.891481
579   2 0.0000  4.159639  3.575111 20.542772
580   2 0.0000  4.159639  3.575111 28.194063
581   2 0.0000  4.159639  3.575111 35.845355
582   2 0.0000  4.159639  3.575111 43.496646
583   2 0.0000  4.159639  8.407730  5.240190
584   2 0.0000  4.159639  8.407730 12.891481
585   2 0.0000  4.159639  8.407730 20.542772
586   2 0.0000  4.159639  8.407730 28.194063
587   2 0.0000  4.159639  8.407730 35.845355
588   2 0.0000  4.159639  8.407730 43.496646
589   2 0.0000  4.159639 13.240350  5.240190
590   2 0.0000  4.159639 13.240350 12.891481
591   2 0.0000  4.159639 13.240350 20.542772
592   2 0.0000  4.159639 13.240350 28.194063
593   2 0.0000  4.159639 13.240350 35.845355
594   2 0.0000  4.159639 13.240350 43.496646
595   2 0.0000  4.159639 18.072969  5.240190
596   2 0.0000  4.159639 18.072969 12.891481
597   2 0.0000  4.159639 18.072969 20.542772
598   2 0.0000  4.159639 18.072969 28.194063
599   2 0.0000  4.159639 18.072969 35.845355
600   2 0.0000  4.159639 18.072969 43.496646
601   2 0.0000  8.992259  3.575111  5.240190
602   2 0.0000  8.992259  3.575111 12.891481
603   2 0.0000  8.992259  3.575111 20.542772
604   2 0.0000  8.992259  3.575111 28.194063
605   2 0.0000  8.992259  3.575111 35.845355
606   2 0.0000  8.992259  3.575111 43.496646
607   2 0.0000  8.992259  8.407730  5.240190
608   2 0.0000  8.992259  8.407730 12.891481
609   2 0.0000  8.992259  8.407730 20.542772
610   2 0.0000  8.992259  8.407730 28.194063
611   2 0.0000  8.992259  8.407730 35.845355
612   2 0.0000  8.992259  8.407730 43.496646
613   2 0.0000  8.992259 13.240350  5.240190
614   2 0.0000  8.992259 13.240350 12.891481
615   2 0.0000  8.992259 13.240350 20.542772
616   2 0.0000  8.992259 13.240350 28.194063
617   2 0.0000  8.992259 13.240350 35.845355
618   2 0.0000  8.992259 13.240350 43.496646
619   2 0.0000  8.992259 18.072969  5.240190
620   2 0.0000  8.992259 18.072969 12.891481
621   2 0.0000  8.992259 18.072969 20.542772
622   2 0.0000  8.992259 18.072969 28.194063
623   2 0.0000  8.992259 18.072969 35.845355
624   2 0.0000  8.992259 18.072969 43.496646
625   2 0.0000 13.824878  3.575111  5.240190
626   2 0.0000 13.824878  3.575111 12.891481
627   2 0.0000 13.824878  3.575111 20.542772
628   2 0.0000 13.824878  3.575111 28.194063
629   2 0.0000 13.824878  3.575111 35.845355
630   2 0.0000 13.824878  3.575111 43.496646
631   2 0.0000 13.824878  8.407730  5.240190
632   2 0.0000 13.824878  8.407730 12.891481
633   2 0.0000 13.824878  8.407730 20.542772
634   2 0.0000 13.824878  8.407730 28.194063
635   2 0.0000 13.824878  8.407730 35.845355
636   2 0.0000 13.824878  8.407730 43.496646
637   2 0.0000 13.824878 13.240350  5.240190
638   2 0.0000 13.824878 13.240350 12.891481
639   2 0.0000 13.824878 13.240350 20.542772
640   2 0.0000 13.824878 13.240350 28.194063
641   2 0.0000 13.824878 13.240350 35.845355
642   2 0.0000 13.824878 13.240350 43.496646
643   2 0.0000 13.824878 18.072969  5.240190
644   2 0.0000 13.824878 18.072969 12.891481
645   2 0.0000 13.824878 18.072969 20.542772
646   2 0.0000 13.824878 18.072969 28.194063
647   2 0.0000 13.824878 18.072969 35.845355
648   2 0.0000 13.824878 18.072969 43.496646
649   2 0.0000 18.657498  3.575111  5.240190
650   2 0.0000 18.657498  3.575111 12.891481
651   2 0.0000 18.657498  3.575111 20.542772
652   2 0.0000 18.657498  3.575111 28.194063
653   2 0.0000 18.657498  3.575111 35.845355
654   2 0.0000 18.657498  3.575111 43.496646
655   2 0.0000 18.657498  8.407730  5.240190
656   2 0.0000 18.657498  8.407730 12.891481
657   2 0.0000 18.657498  8.407730 20.542772
658   2 0.0000 18.657498  8.407730 28.194063
659   2 0.0000 18.657498  8.407730 35.845355
660   2 0.0000 18.657498  8.407730 43.496646
661   2 0.0000 18.657498 13.240350  5.240190
662   2 0.0000 18.657498 13.240350 12.891481