Generated by pymatgen.io.lammps.data.LammpsData

192  atoms

  2  atom types

0.000000 10.939004  xlo xhi
0.000000 10.459703  ylo yhi
0.000000 17.511127  zlo zhi
-3.202589 -6.403253 -11.445810  xy xz yz

Masses

1  47.8670
2  15.9994

Atoms

1    1 0.0000  0.333178   1.776275  3.283317
2    1 0.0000 -1.267635  -1.085178  7.661098
3    1 0.0000 -2.868448  -3.946630 12.038880
4    1 0.0000 -4.469262  -6.808083 16.416662
5    1 0.0000 -1.268116   7.006126  3.283317
6    1 0.0000 -2.868929   4.144674  7.661098
7    1 0.0000 -4.469743   1.283221 12.038880
8    1 0.0000 -6.070556  -1.578232 16.416662
9    1 0.0000  5.802680   1.776275  3.283317
10   1 0.0000  4.201867  -1.085178  7.661098
11   1 0.0000  2.601054  -3.946630 12.038880
12   1 0.0000  1.000240  -6.808083 16.416662
13   1 0.0000  4.201386   7.006126  3.283317
14   1 0.0000  2.600573   4.144674  7.661098
15   1 0.0000  0.999759   1.283221 12.038880
16   1 0.0000 -0.601054  -1.578232 16.416662
17   1 0.0000  1.934231   0.592117  1.094452
18   1 0.0000  0.333417  -2.269336  5.472234
19   1 0.0000 -1.267396  -5.130788  9.850016
20   1 0.0000 -2.868209  -7.992241 14.227797
21   1 0.0000  0.332936   5.821968  1.094452
22   1 0.0000 -1.267877   2.960515  5.472234
23   1 0.0000 -2.868690   0.099063  9.850016
24   1 0.0000 -4.469504  -2.762390 14.227797
25   1 0.0000  7.403733   0.592117  1.094452
26   1 0.0000  5.802919  -2.269336  5.472234
27   1 0.0000  4.202106  -5.130788  9.850016
28   1 0.0000  2.601293  -7.992241 14.227797
29   1 0.0000  5.802438   5.821968  1.094452
30   1 0.0000  4.201625   2.960515  5.472234
31   1 0.0000  2.600812   0.099063  9.850016
32   1 0.0000  0.999998  -2.762390 14.227797
33   1 0.0000  4.669092  -1.430724  2.188895
34   1 0.0000  3.068279  -4.292177  6.566676
35   1 0.0000  1.467466  -7.153629 10.944458
36   1 0.0000 -0.133348 -10.015082 15.322240
37   1 0.0000  3.067798   3.799127  2.188895
38   1 0.0000  1.466985   0.937675  6.566676
39   1 0.0000 -0.133829  -1.923778 10.944458
40   1 0.0000 -1.734642  -4.785231 15.322240
41   1 0.0000 10.138594  -1.430724  2.188895
42   1 0.0000  8.537781  -4.292177  6.566676
43   1 0.0000  6.936968  -7.153629 10.944458
44   1 0.0000  5.336154 -10.015082 15.322240
45   1 0.0000  8.537300   3.799127  2.188895
46   1 0.0000  6.936487   0.937675  6.566676
47   1 0.0000  5.335673  -1.923778 10.944458
48   1 0.0000  3.734860  -4.785231 15.322240
49   1 0.0000  4.668846   2.614929  0.000009
50   1 0.0000  3.068033  -0.246524  4.377791
51   1 0.0000  1.467219  -3.107976  8.755573
52   1 0.0000 -0.133594  -5.969429 13.133354
53   1 0.0000  3.067552   7.844780  0.000009
54   1 0.0000  1.466738   4.983328  4.377791
55   1 0.0000 -0.134075   2.121875  8.755573
56   1 0.0000 -1.734888  -0.739577 13.133354
57   1 0.0000 10.138348   2.614929  0.000009
58   1 0.0000  8.537535  -0.246524  4.377791
59   1 0.0000  6.936721  -3.107976  8.755573
60   1 0.0000  5.335908  -5.969429 13.133354
61   1 0.0000  8.537054   7.844780  0.000009
62   1 0.0000  6.936240   4.983328  4.377791
63   1 0.0000  5.335427   2.121875  8.755573
64   1 0.0000  3.734614  -0.739577 13.133354
65   2 0.0000  0.375798   0.161551  2.190216
66   2 0.0000 -1.225016  -2.699901  6.567998
67   2 0.0000 -2.825829  -5.561354 10.945780
68   2 0.0000 -4.426642  -8.422807 15.323562
69   2 0.0000 -1.225497   5.391402  2.190216
70   2 0.0000 -2.826310   2.529950  6.567998
71   2 0.0000 -4.427123  -0.331503 10.945780
72   2 0.0000 -6.027937  -3.192955 15.323562
73   2 0.0000  5.845300   0.161551  2.190216
74   2 0.0000  4.244486  -2.699901  6.567998
75   2 0.0000  2.643673  -5.561354 10.945780
76   2 0.0000  1.042860  -8.422807 15.323562
77   2 0.0000  4.244005   5.391402  2.190216
78   2 0.0000  2.643192   2.529950  6.567998
79   2 0.0000  1.042379  -0.331503 10.945780
80   2 0.0000 -0.558435  -3.192955 15.323562
81   2 0.0000 -0.845602  -1.400692  4.139898
82   2 0.0000 -2.446416  -4.262144  8.517680
83   2 0.0000 -4.047229  -7.123597 12.895462
84   2 0.0000 -5.648042  -9.985049 17.273243
85   2 0.0000 -2.446897   3.829160  4.139898
86   2 0.0000 -4.047710   0.967707  8.517680
87   2 0.0000 -5.648523  -1.893745 12.895462
88   2 0.0000 -7.249337  -4.755198 17.273243
89   2 0.0000  4.623900  -1.400692  4.139898
90   2 0.0000  3.023086  -4.262144  8.517680
91   2 0.0000  1.422273  -7.123597 12.895462
92   2 0.0000 -0.178540  -9.985049 17.273243
93   2 0.0000  3.022605   3.829160  4.139898
94   2 0.0000  1.421792   0.967707  8.517680
95   2 0.0000 -0.179021  -1.893745 12.895462
96   2 0.0000 -1.779835  -4.755198 17.273243
97   2 0.0000 -1.223315   1.344309  4.376456
98   2 0.0000 -2.824129  -1.517144  8.754238
99   2 0.0000 -4.424942  -4.378596 13.132020
100  2 0.0000 -6.025755  -7.240049 17.509802
101  2 0.0000 -2.824610   6.574160  4.376456
102  2 0.0000 -4.425423   3.712708  8.754238
103  2 0.0000 -6.026236   0.851255 13.132020
104  2 0.0000 -7.627050  -2.010198 17.509802
105  2 0.0000  4.246187   1.344309  4.376456
106  2 0.0000  2.645373  -1.517144  8.754238
107  2 0.0000  1.044560  -4.378596 13.132020
108  2 0.0000 -0.556253  -7.240049 17.509802
109  2 0.0000  2.644892   6.574160  4.376456
110  2 0.0000  1.044079   3.712708  8.754238
111  2 0.0000 -0.556734   0.851255 13.132020
112  2 0.0000 -2.157548  -2.010198 17.509802
113  2 0.0000  3.109994  -0.280945  2.426776
114  2 0.0000  1.509181  -3.142398  6.804558
115  2 0.0000 -0.091633  -6.003850 11.182340
116  2 0.0000 -1.692446  -8.865303 15.560122
117  2 0.0000  1.508700   4.948906  2.426776
118  2 0.0000 -0.092114   2.087454  6.804558
119  2 0.0000 -1.692927  -0.773999 11.182340
120  2 0.0000 -3.293740  -3.635452 15.560122
121  2 0.0000  8.579496  -0.280945  2.426776
122  2 0.0000  6.978683  -3.142398  6.804558
123  2 0.0000  5.377869  -6.003850 11.182340
124  2 0.0000  3.777056  -8.865303 15.560122
125  2 0.0000  6.978202   4.948906  2.426776
126  2 0.0000  5.377388   2.087454  6.804558
127  2 0.0000  3.776575  -0.773999 11.182340
128  2 0.0000  2.175762  -3.635452 15.560122
129  2 0.0000 -0.842598   2.649342  1.951001
130  2 0.0000 -2.443411  -0.212111  6.328782
131  2 0.0000 -4.044225  -3.073563 10.706564
132  2 0.0000 -5.645038  -5.935016 15.084346
133  2 0.0000 -2.443892   7.879193  1.951001
134  2 0.0000 -4.044706   5.017741  6.328782
135  2 0.0000 -5.645519   2.156288 10.706564
136  2 0.0000 -7.246332  -0.705165 15.084346
137  2 0.0000  4.626904   2.649342  1.951001
138  2 0.0000  3.026091  -0.212111  6.328782
139  2 0.0000  1.425277  -3.073563 10.706564
140  2 0.0000 -0.175536  -5.935016 15.084346
141  2 0.0000  3.025610   7.879193  1.951001
142  2 0.0000  1.424796   5.017741  6.328782
143  2 0.0000 -0.176017   2.156288 10.706564
144  2 0.0000 -1.776830  -0.705165 15.084346
145  2 0.0000  3.112998   3.769085  0.237882
146  2 0.0000  1.512185   0.907633  4.615663
147  2 0.0000 -0.088628  -1.953820  8.993445
148  2 0.0000 -1.689442  -4.815273 13.371227
149  2 0.0000  1.511704   8.998937  0.237882
150  2 0.0000 -0.089109   6.137484  4.615663
151  2 0.0000 -1.689922   3.276031  8.993445
152  2 0.0000 -3.290736   0.414579 13.371227
153  2 0.0000  8.582501   3.769085  0.237882
154  2 0.0000  6.981687   0.907633  4.615663
155  2 0.0000  5.380874  -1.953820  8.993445
156  2 0.0000  3.780061  -4.815273 13.371227
157  2 0.0000  6.981206   8.998937  0.237882
158  2 0.0000  5.380393   6.137484  4.615663
159  2 0.0000  3.779580   3.276031  8.993445
160  2 0.0000  2.178766   0.414579 13.371227
161  2 0.0000  3.490708   1.024093  0.001330
162  2 0.0000  1.889895  -1.837360  4.379112
163  2 0.0000  0.289081  -4.698813  8.756894
164  2 0.0000 -1.311732  -7.560265 13.134676
165  2 0.0000  1.889414   6.253944  0.001330
166  2 0.0000  0.288600   3.392491  4.379112
167  2 0.0000 -1.312213   0.531039  8.756894
168  2 0.0000 -2.913026  -2.330414 13.134676
169  2 0.0000  8.960210   1.024093  0.001330
170  2 0.0000  7.359397  -1.837360  4.379112
171  2 0.0000  5.758583  -4.698813  8.756894
172  2 0.0000  4.157770  -7.560265 13.134676
173  2 0.0000  7.358916   6.253944  0.001330
174  2 0.0000  5.758102   3.392491  4.379112
175  2 0.0000  4.157289   0.531039  8.756894
176  2 0.0000  2.556476  -2.330414 13.134676
177  2 0.0000  1.891595   2.206849  2.187568
178  2 0.0000  0.290781  -0.654604  6.565350
179  2 0.0000 -1.310032  -3.516056 10.943131
180  2 0.0000 -2.910845  -6.377509 15.320913
181  2 0.0000  0.290300   7.436700  2.187568
182  2 0.0000 -1.310513   4.575248  6.565350
183  2 0.0000 -2.911326   1.713795 10.943131
184  2 0.0000 -4.512140  -1.147658 15.320913
185  2 0.0000  7.361097   2.206849  2.187568
186  2 0.0000  5.760283  -0.654604  6.565350
187  2 0.0000  4.159470  -3.516056 10.943131
188  2 0.0000  2.558657  -6.377509 15.320913
189  2 0.0000  5.759802   7.436700  2.187568
190  2 0.0000  4.158989   4.575248  6.565350
191  2 0.0000  2.558176   1.713795 10.943131
192  2 0.0000  0.957362  -1.147658 15.320913

