Generated by pymatgen.io.lammps.data.LammpsData

1152  atoms

   2  atom types

0.000000 21.878008  xlo xhi
0.000000 20.919405  ylo yhi
0.000000 26.266691  zlo zhi
-6.405177 -9.604880 -17.168716  xy xz yz

Masses

1  47.8670
2  15.9994

Atoms

1     1 0.0000   0.333178   1.776275  3.283317
2     1 0.0000  -1.267635  -1.085178  7.661098
3     1 0.0000  -2.868448  -3.946630 12.038880
4     1 0.0000  -4.469262  -6.808083 16.416662
5     1 0.0000  -6.070075  -9.669535 20.794444
6     1 0.0000  -7.670888 -12.530988 25.172226
7     1 0.0000  -1.268116   7.006126  3.283317
8     1 0.0000  -2.868929   4.144674  7.661098
9     1 0.0000  -4.469743   1.283221 12.038880
10    1 0.0000  -6.070556  -1.578232 16.416662
11    1 0.0000  -7.671369  -4.439684 20.794444
12    1 0.0000  -9.272183  -7.301137 25.172226
13    1 0.0000  -2.869410  12.235978  3.283317
14    1 0.0000  -4.470224   9.374525  7.661098
15    1 0.0000  -6.071037   6.513072 12.038880
16    1 0.0000  -7.671850   3.651620 16.416662
17    1 0.0000  -9.272664   0.790167 20.794444
18    1 0.0000 -10.873477  -2.071285 25.172226
19    1 0.0000  -4.470705  17.465829  3.283317
20    1 0.0000  -6.071518  14.604376  7.661098
21    1 0.0000  -7.672331  11.742924 12.038880
22    1 0.0000  -9.273145   8.881471 16.416662
23    1 0.0000 -10.873958   6.020019 20.794444
24    1 0.0000 -12.474771   3.158566 25.172226
25    1 0.0000   5.802680   1.776275  3.283317
26    1 0.0000   4.201867  -1.085178  7.661098
27    1 0.0000   2.601054  -3.946630 12.038880
28    1 0.0000   1.000240  -6.808083 16.416662
29    1 0.0000  -0.600573  -9.669535 20.794444
30    1 0.0000  -2.201386 -12.530988 25.172226
31    1 0.0000   4.201386   7.006126  3.283317
32    1 0.0000   2.600573   4.144674  7.661098
33    1 0.0000   0.999759   1.283221 12.038880
34    1 0.0000  -0.601054  -1.578232 16.416662
35    1 0.0000  -2.201867  -4.439684 20.794444
36    1 0.0000  -3.802681  -7.301137 25.172226
37    1 0.0000   2.600092  12.235978  3.283317
38    1 0.0000   0.999279   9.374525  7.661098
39    1 0.0000  -0.601535   6.513072 12.038880
40    1 0.0000  -2.202348   3.651620 16.416662
41    1 0.0000  -3.803161   0.790167 20.794444
42    1 0.0000  -5.403975  -2.071285 25.172226
43    1 0.0000   0.998798  17.465829  3.283317
44    1 0.0000  -0.602016  14.604376  7.661098
45    1 0.0000  -2.202829  11.742924 12.038880
46    1 0.0000  -3.803642   8.881471 16.416662
47    1 0.0000  -5.404456   6.020019 20.794444
48    1 0.0000  -7.005269   3.158566 25.172226
49    1 0.0000  11.272182   1.776275  3.283317
50    1 0.0000   9.671369  -1.085178  7.661098
51    1 0.0000   8.070556  -3.946630 12.038880
52    1 0.0000   6.469742  -6.808083 16.416662
53    1 0.0000   4.868929  -9.669535 20.794444
54    1 0.0000   3.268116 -12.530988 25.172226
55    1 0.0000   9.670888   7.006126  3.283317
56    1 0.0000   8.070075   4.144674  7.661098
57    1 0.0000   6.469262   1.283221 12.038880
58    1 0.0000   4.868448  -1.578232 16.416662
59    1 0.0000   3.267635  -4.439684 20.794444
60    1 0.0000   1.666822  -7.301137 25.172226
61    1 0.0000   8.069594  12.235978  3.283317
62    1 0.0000   6.468781   9.374525  7.661098
63    1 0.0000   4.867967   6.513072 12.038880
64    1 0.0000   3.267154   3.651620 16.416662
65    1 0.0000   1.666341   0.790167 20.794444
66    1 0.0000   0.065527  -2.071285 25.172226
67    1 0.0000   6.468300  17.465829  3.283317
68    1 0.0000   4.867486  14.604376  7.661098
69    1 0.0000   3.266673  11.742924 12.038880
70    1 0.0000   1.665860   8.881471 16.416662
71    1 0.0000   0.065046   6.020019 20.794444
72    1 0.0000  -1.535767   3.158566 25.172226
73    1 0.0000  16.741685   1.776275  3.283317
74    1 0.0000  15.140871  -1.085178  7.661098
75    1 0.0000  13.540058  -3.946630 12.038880
76    1 0.0000  11.939245  -6.808083 16.416662
77    1 0.0000  10.338431  -9.669535 20.794444
78    1 0.0000   8.737618 -12.530988 25.172226
79    1 0.0000  15.140390   7.006126  3.283317
80    1 0.0000  13.539577   4.144674  7.661098
81    1 0.0000  11.938764   1.283221 12.038880
82    1 0.0000  10.337950  -1.578232 16.416662
83    1 0.0000   8.737137  -4.439684 20.794444
84    1 0.0000   7.136324  -7.301137 25.172226
85    1 0.0000  13.539096  12.235978  3.283317
86    1 0.0000  11.938283   9.374525  7.661098
87    1 0.0000  10.337469   6.513072 12.038880
88    1 0.0000   8.736656   3.651620 16.416662
89    1 0.0000   7.135843   0.790167 20.794444
90    1 0.0000   5.535029  -2.071285 25.172226
91    1 0.0000  11.937802  17.465829  3.283317
92    1 0.0000  10.336988  14.604376  7.661098
93    1 0.0000   8.736175  11.742924 12.038880
94    1 0.0000   7.135362   8.881471 16.416662
95    1 0.0000   5.534548   6.020019 20.794444
96    1 0.0000   3.933735   3.158566 25.172226
97    1 0.0000   1.934231   0.592117  1.094452
98    1 0.0000   0.333417  -2.269336  5.472234
99    1 0.0000  -1.267396  -5.130788  9.850016
100   1 0.0000  -2.868209  -7.992241 14.227797
101   1 0.0000  -4.469023 -10.853694 18.605579
102   1 0.0000  -6.069836 -13.715146 22.983361
103   1 0.0000   0.332936   5.821968  1.094452
104   1 0.0000  -1.267877   2.960515  5.472234
105   1 0.0000  -2.868690   0.099063  9.850016
106   1 0.0000  -4.469504  -2.762390 14.227797
107   1 0.0000  -6.070317  -5.623842 18.605579
108   1 0.0000  -7.671130  -8.485295 22.983361
109   1 0.0000  -1.268358  11.051819  1.094452
110   1 0.0000  -2.869171   8.190367  5.472234
111   1 0.0000  -4.469985   5.328914  9.850016
112   1 0.0000  -6.070798   2.467462 14.227797
113   1 0.0000  -7.671611  -0.393991 18.605579
114   1 0.0000  -9.272425  -3.255443 22.983361
115   1 0.0000  -2.869652  16.281671  1.094452
116   1 0.0000  -4.470466  13.420218  5.472234
117   1 0.0000  -6.071279  10.558766  9.850016
118   1 0.0000  -7.672092   7.697313 14.227797
119   1 0.0000  -9.272906   4.835860 18.605579
120   1 0.0000 -10.873719   1.974408 22.983361
121   1 0.0000   7.403733   0.592117  1.094452
122   1 0.0000   5.802919  -2.269336  5.472234
123   1 0.0000   4.202106  -5.130788  9.850016
124   1 0.0000   2.601293  -7.992241 14.227797
125   1 0.0000   1.000479 -10.853694 18.605579
126   1 0.0000  -0.600334 -13.715146 22.983361
127   1 0.0000   5.802438   5.821968  1.094452
128   1 0.0000   4.201625   2.960515  5.472234
129   1 0.0000   2.600812   0.099063  9.850016
130   1 0.0000   0.999998  -2.762390 14.227797
131   1 0.0000  -0.600815  -5.623842 18.605579
132   1 0.0000  -2.201628  -8.485295 22.983361
133   1 0.0000   4.201144  11.051819  1.094452
134   1 0.0000   2.600331   8.190367  5.472234
135   1 0.0000   0.999517   5.328914  9.850016
136   1 0.0000  -0.601296   2.467462 14.227797
137   1 0.0000  -2.202109  -0.393991 18.605579
138   1 0.0000  -3.802923  -3.255443 22.983361
139   1 0.0000   2.599850  16.281671  1.094452
140   1 0.0000   0.999036  13.420218  5.472234
141   1 0.0000  -0.601777  10.558766  9.850016
142   1 0.0000  -2.202590   7.697313 14.227797
143   1 0.0000  -3.803404   4.835860 18.605579
144   1 0.0000  -5.404217   1.974408 22.983361
145   1 0.0000  12.873235   0.592117  1.094452
146   1 0.0000  11.272421  -2.269336  5.472234
147   1 0.0000   9.671608  -5.130788  9.850016
148   1 0.0000   8.070795  -7.992241 14.227797
149   1 0.0000   6.469981 -10.853694 18.605579
150   1 0.0000   4.869168 -13.715146 22.983361
151   1 0.0000  11.271940   5.821968  1.094452
152   1 0.0000   9.671127   2.960515  5.472234
153   1 0.0000   8.070314   0.099063  9.850016
154   1 0.0000   6.469500  -2.762390 14.227797
155   1 0.0000   4.868687  -5.623842 18.605579
156   1 0.0000   3.267874  -8.485295 22.983361
157   1 0.0000   9.670646  11.051819  1.094452
158   1 0.0000   8.069833   8.190367  5.472234
159   1 0.0000   6.469019   5.328914  9.850016
160   1 0.0000   4.868206   2.467462 14.227797
161   1 0.0000   3.267393  -0.393991 18.605579
162   1 0.0000   1.666579  -3.255443 22.983361
163   1 0.0000   8.069352  16.281671  1.094452
164   1 0.0000   6.468539  13.420218  5.472234
165   1 0.0000   4.867725  10.558766  9.850016
166   1 0.0000   3.266912   7.697313 14.227797
167   1 0.0000   1.666099   4.835860 18.605579
168   1 0.0000   0.065285   1.974408 22.983361
169   1 0.0000  18.342737   0.592117  1.094452
170   1 0.0000  16.741923  -2.269336  5.472234
171   1 0.0000  15.141110  -5.130788  9.850016
172   1 0.0000  13.540297  -7.992241 14.227797
173   1 0.0000  11.939483 -10.853694 18.605579
174   1 0.0000  10.338670 -13.715146 22.983361
175   1 0.0000  16.741442   5.821968  1.094452
176   1 0.0000  15.140629   2.960515  5.472234
177   1 0.0000  13.539816   0.099063  9.850016
178   1 0.0000  11.939002  -2.762390 14.227797
179   1 0.0000  10.338189  -5.623842 18.605579
180   1 0.0000   8.737376  -8.485295 22.983361
181   1 0.0000  15.140148  11.051819  1.094452
182   1 0.0000  13.539335   8.190367  5.472234
183   1 0.0000  11.938522   5.328914  9.850016
184   1 0.0000  10.337708   2.467462 14.227797
185   1 0.0000   8.736895  -0.393991 18.605579
186   1 0.0000   7.136082  -3.255443 22.983361
187   1 0.0000  13.538854  16.281671  1.094452
188   1 0.0000  11.938041  13.420218  5.472234
189   1 0.0000  10.337227  10.558766  9.850016
190   1 0.0000   8.736414   7.697313 14.227797
191   1 0.0000   7.135601   4.835860 18.605579
192   1 0.0000   5.534787   1.974408 22.983361
193   1 0.0000   4.669092  -1.430724  2.188895
194   1 0.0000   3.068279  -4.292177  6.566676
195   1 0.0000   1.467466  -7.153629 10.944458
196   1 0.0000  -0.133348 -10.015082 15.322240
197   1 0.0000  -1.734161 -12.876535 19.700022
198   1 0.0000  -3.334974 -15.737987 24.077804
199   1 0.0000   3.067798   3.799127  2.188895
200   1 0.0000   1.466985   0.937675  6.566676
201   1 0.0000  -0.133829  -1.923778 10.944458
202   1 0.0000  -1.734642  -4.785231 15.322240
203   1 0.0000  -3.335455  -7.646683 19.700022
204   1 0.0000  -4.936269 -10.508136 24.077804
205   1 0.0000   1.466504   9.028978  2.188895
206   1 0.0000  -0.134310   6.167526  6.566676
207   1 0.0000  -1.735123   3.306073 10.944458
208   1 0.0000  -3.335936   0.444621 15.322240
209   1 0.0000  -4.936750  -2.416832 19.700022
210   1 0.0000  -6.537563  -5.278284 24.077804
211   1 0.0000  -0.134791  14.258830  2.188895
212   1 0.0000  -1.735604  11.397377  6.566676
213   1 0.0000  -3.336417   8.535925 10.944458
214   1 0.0000  -4.937231   5.674472 15.322240
215   1 0.0000  -6.538044   2.813020 19.700022
216   1 0.0000  -8.138857  -0.048433 24.077804
217   1 0.0000  10.138594  -1.430724  2.188895
218   1 0.0000   8.537781  -4.292177  6.566676
219   1 0.0000   6.936968  -7.153629 10.944458
220   1 0.0000   5.336154 -10.015082 15.322240
221   1 0.0000   3.735341 -12.876535 19.700022
222   1 0.0000   2.134528 -15.737987 24.077804
223   1 0.0000   8.537300   3.799127  2.188895
224   1 0.0000   6.936487   0.937675  6.566676
225   1 0.0000   5.335673  -1.923778 10.944458
226   1 0.0000   3.734860  -4.785231 15.322240
227   1 0.0000   2.134047  -7.646683 19.700022
228   1 0.0000   0.533233 -10.508136 24.077804
229   1 0.0000   6.936006   9.028978  2.188895
230   1 0.0000   5.335192   6.167526  6.566676
231   1 0.0000   3.734379   3.306073 10.944458
232   1 0.0000   2.133566   0.444621 15.322240
233   1 0.0000   0.532752  -2.416832 19.700022
234   1 0.0000  -1.068061  -5.278284 24.077804
235   1 0.0000   5.334711  14.258830  2.188895
236   1 0.0000   3.733898  11.397377  6.566676
237   1 0.0000   2.133085   8.535925 10.944458
238   1 0.0000   0.532271   5.674472 15.322240
239   1 0.0000  -1.068542   2.813020 19.700022
240   1 0.0000  -2.669355  -0.048433 24.077804
241   1 0.0000  15.608096  -1.430724  2.188895
242   1 0.0000  14.007283  -4.292177  6.566676
243   1 0.0000  12.406470  -7.153629 10.944458
244   1 0.0000  10.805656 -10.015082 15.322240
245   1 0.0000   9.204843 -12.876535 19.700022
246   1 0.0000   7.604030 -15.737987 24.077804
247   1 0.0000  14.006802   3.799127  2.188895
248   1 0.0000  12.405989   0.937675  6.566676
249   1 0.0000  10.805175  -1.923778 10.944458
250   1 0.0000   9.204362  -4.785231 15.322240
251   1 0.0000   7.603549  -7.646683 19.700022
252   1 0.0000   6.002735 -10.508136 24.077804
253   1 0.0000  12.405508   9.028978  2.188895
254   1 0.0000  10.804695   6.167526  6.566676
255   1 0.0000   9.203881   3.306073 10.944458
256   1 0.0000   7.603068   0.444621 15.322240
257   1 0.0000   6.002255  -2.416832 19.700022
258   1 0.0000   4.401441  -5.278284 24.077804
259   1 0.0000  10.804214  14.258830  2.188895
260   1 0.0000   9.203400  11.397377  6.566676
261   1 0.0000   7.602587   8.535925 10.944458
262   1 0.0000   6.001774   5.674472 15.322240
263   1 0.0000   4.400960   2.813020 19.700022
264   1 0.0000   2.800147  -0.048433 24.077804
265   1 0.0000  21.077598  -1.430724  2.188895
266   1 0.0000  19.476785  -4.292177  6.566676
267   1 0.0000  17.875972  -7.153629 10.944458
268   1 0.0000  16.275158 -10.015082 15.322240
269   1 0.0000  14.674345 -12.876535 19.700022
270   1 0.0000  13.073532 -15.737987 24.077804
271   1 0.0000  19.476304   3.799127  2.188895
272   1 0.0000  17.875491   0.937675  6.566676
273   1 0.0000  16.274678  -1.923778 10.944458
274   1 0.0000  14.673864  -4.785231 15.322240
275   1 0.0000  13.073051  -7.646683 19.700022
276   1 0.0000  11.472238 -10.508136 24.077804
277   1 0.0000  17.875010   9.028978  2.188895
278   1 0.0000  16.274197   6.167526  6.566676
279   1 0.0000  14.673383   3.306073 10.944458
280   1 0.0000  13.072570   0.444621 15.322240
281   1 0.0000  11.471757  -2.416832 19.700022
282   1 0.0000   9.870943  -5.278284 24.077804
283   1 0.0000  16.273716  14.258830  2.188895
284   1 0.0000  14.672902  11.397377  6.566676
285   1 0.0000  13.072089   8.535925 10.944458
286   1 0.0000  11.471276   5.674472 15.322240
287   1 0.0000   9.870462   2.813020 19.700022
288   1 0.0000   8.269649  -0.048433 24.077804
289   1 0.0000   4.668846   2.614929  0.000009
290   1 0.0000   3.068033  -0.246524  4.377791
291   1 0.0000   1.467219  -3.107976  8.755573
292   1 0.0000  -0.133594  -5.969429 13.133354
293   1 0.0000  -1.734407  -8.830881 17.511136
294   1 0.0000  -3.335221 -11.692334 21.888918
295   1 0.0000   3.067552   7.844780  0.000009
296   1 0.0000   1.466738   4.983328  4.377791
297   1 0.0000  -0.134075   2.121875  8.755573
298   1 0.0000  -1.734888  -0.739577 13.133354
299   1 0.0000  -3.335702  -3.601030 17.511136
300   1 0.0000  -4.936515  -6.462483 21.888918
301   1 0.0000   1.466257  13.074632  0.000009
302   1 0.0000  -0.134556  10.213179  4.377791
303   1 0.0000  -1.735369   7.351727  8.755573
304   1 0.0000  -3.336183   4.490274 13.133354
305   1 0.0000  -4.936996   1.628821 17.511136
306   1 0.0000  -6.537809  -1.232631 21.888918
307   1 0.0000  -0.135037  18.304483  0.000009
308   1 0.0000  -1.735850  15.443031  4.377791
309   1 0.0000  -3.336664  12.581578  8.755573
310   1 0.0000  -4.937477   9.720125 13.133354
311   1 0.0000  -6.538290   6.858673 17.511136
312   1 0.0000  -8.139104   3.997220 21.888918
313   1 0.0000  10.138348   2.614929  0.000009
314   1 0.0000   8.537535  -0.246524  4.377791
315   1 0.0000   6.936721  -3.107976  8.755573
316   1 0.0000   5.335908  -5.969429 13.133354
317   1 0.0000   3.735095  -8.830881 17.511136
318   1 0.0000   2.134281 -11.692334 21.888918
319   1 0.0000   8.537054   7.844780  0.000009
320   1 0.0000   6.936240   4.983328  4.377791
321   1 0.0000   5.335427   2.121875  8.755573
322   1 0.0000   3.734614  -0.739577 13.133354
323   1 0.0000   2.133800  -3.601030 17.511136
324   1 0.0000   0.532987  -6.462483 21.888918
325   1 0.0000   6.935759  13.074632  0.000009
326   1 0.0000   5.334946  10.213179  4.377791
327   1 0.0000   3.734133   7.351727  8.755573
328   1 0.0000   2.133319   4.490274 13.133354
329   1 0.0000   0.532506   1.628821 17.511136
330   1 0.0000  -1.068307  -1.232631 21.888918
331   1 0.0000   5.334465  18.304483  0.000009
332   1 0.0000   3.733652  15.443031  4.377791
333   1 0.0000   2.132838  12.581578  8.755573
334   1 0.0000   0.532025   9.720125 13.133354
335   1 0.0000  -1.068788   6.858673 17.511136
336   1 0.0000  -2.669602   3.997220 21.888918
337   1 0.0000  15.607850   2.614929  0.000009
338   1 0.0000  14.007037  -0.246524  4.377791
339   1 0.0000  12.406223  -3.107976  8.755573
340   1 0.0000  10.805410  -5.969429 13.133354
341   1 0.0000   9.204597  -8.830881 17.511136
342   1 0.0000   7.603783 -11.692334 21.888918
343   1 0.0000  14.006556   7.844780  0.000009
344   1 0.0000  12.405742   4.983328  4.377791
345   1 0.0000  10.804929   2.121875  8.755573
346   1 0.0000   9.204116  -0.739577 13.133354
347   1 0.0000   7.603302  -3.601030 17.511136
348   1 0.0000   6.002489  -6.462483 21.888918
349   1 0.0000  12.405262  13.074632  0.000009
350   1 0.0000  10.804448  10.213179  4.377791
351   1 0.0000   9.203635   7.351727  8.755573
352   1 0.0000   7.602822   4.490274 13.133354
353   1 0.0000   6.002008   1.628821 17.511136
354   1 0.0000   4.401195  -1.232631 21.888918
355   1 0.0000  10.803967  18.304483  0.000009
356   1 0.0000   9.203154  15.443031  4.377791
357   1 0.0000   7.602341  12.581578  8.755573
358   1 0.0000   6.001527   9.720125 13.133354
359   1 0.0000   4.400714   6.858673 17.511136
360   1 0.0000   2.799901   3.997220 21.888918
361   1 0.0000  21.077352   2.614929  0.000009
362   1 0.0000  19.476539  -0.246524  4.377791
363   1 0.0000  17.875725  -3.107976  8.755573
364   1 0.0000  16.274912  -5.969429 13.133354
365   1 0.0000  14.674099  -8.830881 17.511136
366   1 0.0000  13.073285 -11.692334 21.888918
367   1 0.0000  19.476058   7.844780  0.000009
368   1 0.0000  17.875245   4.983328  4.377791
369   1 0.0000  16.274431   2.121875  8.755573
370   1 0.0000  14.673618  -0.739577 13.133354
371   1 0.0000  13.072805  -3.601030 17.511136
372   1 0.0000  11.471991  -6.462483 21.888918
373   1 0.0000  17.874764  13.074632  0.000009
374   1 0.0000  16.273950  10.213179  4.377791
375   1 0.0000  14.673137   7.351727  8.755573
376   1 0.0000  13.072324   4.490274 13.133354
377   1 0.0000  11.471510   1.628821 17.511136
378   1 0.0000   9.870697  -1.232631 21.888918
379   1 0.0000  16.273469  18.304483  0.000009
380   1 0.0000  14.672656  15.443031  4.377791
381   1 0.0000  13.071843  12.581578  8.755573
382   1 0.0000  11.471029   9.720125 13.133354
383   1 0.0000   9.870216   6.858673 17.511136
384   1 0.0000   8.269403   3.997220 21.888918
385   2 0.0000   0.375798   0.161551  2.190216
386   2 0.0000  -1.225016  -2.699901  6.567998
387   2 0.0000  -2.825829  -5.561354 10.945780
388   2 0.0000  -4.426642  -8.422807 15.323562
389   2 0.0000  -6.027456 -11.284259 19.701344
390   2 0.0000  -7.628269 -14.145712 24.079125
391   2 0.0000  -1.225497   5.391402  2.190216
392   2 0.0000  -2.826310   2.529950  6.567998
393   2 0.0000  -4.427123  -0.331503 10.945780
394   2 0.0000  -6.027937  -3.192955 15.323562
395   2 0.0000  -7.628750  -6.054408 19.701344
396   2 0.0000  -9.229563  -8.915860 24.079125
397   2 0.0000  -2.826791  10.621254  2.190216
398   2 0.0000  -4.427604   7.759801  6.567998
399   2 0.0000  -6.028418   4.898349 10.945780
400   2 0.0000  -7.629231   2.036896 15.323562
401   2 0.0000  -9.230044  -0.824557 19.701344
402   2 0.0000 -10.830858  -3.686009 24.079125
403   2 0.0000  -4.428085  15.851105  2.190216
404   2 0.0000  -6.028899  12.989653  6.567998
405   2 0.0000  -7.629712  10.128200 10.945780
406   2 0.0000  -9.230525   7.266747 15.323562
407   2 0.0000 -10.831339   4.405295 19.701344
408   2 0.0000 -12.432152   1.543842 24.079125
409   2 0.0000   5.845300   0.161551  2.190216
410   2 0.0000   4.244486  -2.699901  6.567998
411   2 0.0000   2.643673  -5.561354 10.945780
412   2 0.0000   1.042860  -8.422807 15.323562
413   2 0.0000  -0.557954 -11.284259 19.701344
414   2 0.0000  -2.158767 -14.145712 24.079125
415   2 0.0000   4.244005   5.391402  2.190216
416   2 0.0000   2.643192   2.529950  6.567998
417   2 0.0000   1.042379  -0.331503 10.945780
418   2 0.0000  -0.558435  -3.192955 15.323562
419   2 0.0000  -2.159248  -6.054408 19.701344
420   2 0.0000  -3.760061  -8.915860 24.079125
421   2 0.0000   2.642711  10.621254  2.190216
422   2 0.0000   1.041898   7.759801  6.567998
423   2 0.0000  -0.558916   4.898349 10.945780
424   2 0.0000  -2.159729   2.036896 15.323562
425   2 0.0000  -3.760542  -0.824557 19.701344
426   2 0.0000  -5.361356  -3.686009 24.079125
427   2 0.0000   1.041417  15.851105  2.190216
428   2 0.0000  -0.559397  12.989653  6.567998
429   2 0.0000  -2.160210  10.128200 10.945780
430   2 0.0000  -3.761023   7.266747 15.323562
431   2 0.0000  -5.361837   4.405295 19.701344
432   2 0.0000  -6.962650   1.543842 24.079125
433   2 0.0000  11.314802   0.161551  2.190216
434   2 0.0000   9.713988  -2.699901  6.567998
435   2 0.0000   8.113175  -5.561354 10.945780
436   2 0.0000   6.512362  -8.422807 15.323562
437   2 0.0000   4.911548 -11.284259 19.701344
438   2 0.0000   3.310735 -14.145712 24.079125
439   2 0.0000   9.713507   5.391402  2.190216
440   2 0.0000   8.112694   2.529950  6.567998
441   2 0.0000   6.511881  -0.331503 10.945780
442   2 0.0000   4.911067  -3.192955 15.323562
443   2 0.0000   3.310254  -6.054408 19.701344
444   2 0.0000   1.709441  -8.915860 24.079125
445   2 0.0000   8.112213  10.621254  2.190216
446   2 0.0000   6.511400   7.759801  6.567998
447   2 0.0000   4.910586   4.898349 10.945780
448   2 0.0000   3.309773   2.036896 15.323562
449   2 0.0000   1.708960  -0.824557 19.701344
450   2 0.0000   0.108146  -3.686009 24.079125
451   2 0.0000   6.510919  15.851105  2.190216
452   2 0.0000   4.910105  12.989653  6.567998
453   2 0.0000   3.309292  10.128200 10.945780
454   2 0.0000   1.708479   7.266747 15.323562
455   2 0.0000   0.107665   4.405295 19.701344
456   2 0.0000  -1.493148   1.543842 24.079125
457   2 0.0000  16.784304   0.161551  2.190216
458   2 0.0000  15.183490  -2.699901  6.567998
459   2 0.0000  13.582677  -5.561354 10.945780
460   2 0.0000  11.981864  -8.422807 15.323562
461   2 0.0000  10.381050 -11.284259 19.701344
462   2 0.0000   8.780237 -14.145712 24.079125
463   2 0.0000  15.183009   5.391402  2.190216
464   2 0.0000  13.582196   2.529950  6.567998
465   2 0.0000  11.981383  -0.331503 10.945780
466   2 0.0000  10.380569  -3.192955 15.323562
467   2 0.0000   8.779756  -6.054408 19.701344
468   2 0.0000   7.178943  -8.915860 24.079125
469   2 0.0000  13.581715  10.621254  2.190216
470   2 0.0000  11.980902   7.759801  6.567998
471   2 0.0000  10.380088   4.898349 10.945780
472   2 0.0000   8.779275   2.036896 15.323562
473   2 0.0000   7.178462  -0.824557 19.701344
474   2 0.0000   5.577649  -3.686009 24.079125
475   2 0.0000  11.980421  15.851105  2.190216
476   2 0.0000  10.379608  12.989653  6.567998
477   2 0.0000   8.778794  10.128200 10.945780
478   2 0.0000   7.177981   7.266747 15.323562
479   2 0.0000   5.577168   4.405295 19.701344
480   2 0.0000   3.976354   1.543842 24.079125
481   2 0.0000  -0.845602  -1.400692  4.139898
482   2 0.0000  -2.446416  -4.262144  8.517680
483   2 0.0000  -4.047229  -7.123597 12.895462
484   2 0.0000  -5.648042  -9.985049 17.273243
485   2 0.0000  -7.248856 -12.846502 21.651025
486   2 0.0000  -8.849669 -15.707955 26.028807
487   2 0.0000  -2.446897   3.829160  4.139898
488   2 0.0000  -4.047710   0.967707  8.517680
489   2 0.0000  -5.648523  -1.893745 12.895462
490   2 0.0000  -7.249337  -4.755198 17.273243
491   2 0.0000  -8.850150  -7.616651 21.651025
492   2 0.0000 -10.450963 -10.478103 26.028807
493   2 0.0000  -4.048191   9.059011  4.139898
494   2 0.0000  -5.649004   6.197559  8.517680
495   2 0.0000  -7.249818   3.336106 12.895462
496   2 0.0000  -8.850631   0.474653 17.273243
497   2 0.0000 -10.451444  -2.386799 21.651025
498   2 0.0000 -12.052258  -5.248252 26.028807
499   2 0.0000  -5.649485  14.288862  4.139898
500   2 0.0000  -7.250299  11.427410  8.517680
501   2 0.0000  -8.851112   8.565957 12.895462
502   2 0.0000 -10.451925   5.704505 17.273243
503   2 0.0000 -12.052738   2.843052 21.651025
504   2 0.0000 -13.653552  -0.018400 26.028807
505   2 0.0000   4.623900  -1.400692  4.139898
506   2 0.0000   3.023086  -4.262144  8.517680
507   2 0.0000   1.422273  -7.123597 12.895462
508   2 0.0000  -0.178540  -9.985049 17.273243
509   2 0.0000  -1.779354 -12.846502 21.651025
510   2 0.0000  -3.380167 -15.707955 26.028807
511   2 0.0000   3.022605   3.829160  4.139898
512   2 0.0000   1.421792   0.967707  8.517680
513   2 0.0000  -0.179021  -1.893745 12.895462
514   2 0.0000  -1.779835  -4.755198 17.273243
515   2 0.0000  -3.380648  -7.616651 21.651025
516   2 0.0000  -4.981461 -10.478103 26.028807
517   2 0.0000   1.421311   9.059011  4.139898
518   2 0.0000  -0.179502   6.197559  8.517680
519   2 0.0000  -1.780315   3.336106 12.895462
520   2 0.0000  -3.381129   0.474653 17.273243
521   2 0.0000  -4.981942  -2.386799 21.651025
522   2 0.0000  -6.582755  -5.248252 26.028807
523   2 0.0000  -0.179983  14.288862  4.139898
524   2 0.0000  -1.780796  11.427410  8.517680
525   2 0.0000  -3.381610   8.565957 12.895462
526   2 0.0000  -4.982423   5.704505 17.273243
527   2 0.0000  -6.583236   2.843052 21.651025
528   2 0.0000  -8.184050  -0.018400 26.028807
529   2 0.0000  10.093402  -1.400692  4.139898
530   2 0.0000   8.492588  -4.262144  8.517680
531   2 0.0000   6.891775  -7.123597 12.895462
532   2 0.0000   5.290962  -9.985049 17.273243
533   2 0.0000   3.690149 -12.846502 21.651025
534   2 0.0000   2.089335 -15.707955 26.028807
535   2 0.0000   8.492108   3.829160  4.139898
536   2 0.0000   6.891294   0.967707  8.517680
537   2 0.0000   5.290481  -1.893745 12.895462
538   2 0.0000   3.689668  -4.755198 17.273243
539   2 0.0000   2.088854  -7.616651 21.651025
540   2 0.0000   0.488041 -10.478103 26.028807
541   2 0.0000   6.890813   9.059011  4.139898
542   2 0.0000   5.290000   6.197559  8.517680
543   2 0.0000   3.689187   3.336106 12.895462
544   2 0.0000   2.088373   0.474653 17.273243
545   2 0.0000   0.487560  -2.386799 21.651025
546   2 0.0000  -1.113253  -5.248252 26.028807
547   2 0.0000   5.289519  14.288862  4.139898
548   2 0.0000   3.688706  11.427410  8.517680
549   2 0.0000   2.087892   8.565957 12.895462
550   2 0.0000   0.487079   5.704505 17.273243
551   2 0.0000  -1.113734   2.843052 21.651025
552   2 0.0000  -2.714548  -0.018400 26.028807
553   2 0.0000  15.562904  -1.400692  4.139898
554   2 0.0000  13.962091  -4.262144  8.517680
555   2 0.0000  12.361277  -7.123597 12.895462
556   2 0.0000  10.760464  -9.985049 17.273243
557   2 0.0000   9.159651 -12.846502 21.651025
558   2 0.0000   7.558837 -15.707955 26.028807
559   2 0.0000  13.961610   3.829160  4.139898
560   2 0.0000  12.360796   0.967707  8.517680
561   2 0.0000  10.759983  -1.893745 12.895462
562   2 0.0000   9.159170  -4.755198 17.273243
563   2 0.0000   7.558356  -7.616651 21.651025
564   2 0.0000   5.957543 -10.478103 26.028807
565   2 0.0000  12.360315   9.059011  4.139898
566   2 0.0000  10.759502   6.197559  8.517680
567   2 0.0000   9.158689   3.336106 12.895462
568   2 0.0000   7.557875   0.474653 17.273243
569   2 0.0000   5.957062  -2.386799 21.651025
570   2 0.0000   4.356249  -5.248252 26.028807
571   2 0.0000  10.759021  14.288862  4.139898
572   2 0.0000   9.158208  11.427410  8.517680
573   2 0.0000   7.557394   8.565957 12.895462
574   2 0.0000   5.956581   5.704505 17.273243
575   2 0.0000   4.355768   2.843052 21.651025
576   2 0.0000   2.754954  -0.018400 26.028807
577   2 0.0000  -1.223315   1.344309  4.376456
578   2 0.0000  -2.824129  -1.517144  8.754238
579   2 0.0000  -4.424942  -4.378596 13.132020
580   2 0.0000  -6.025755  -7.240049 17.509802
581   2 0.0000  -7.626569 -10.101502 21.887584
582   2 0.0000  -9.227382 -12.962954 26.265365
583   2 0.0000  -2.824610   6.574160  4.376456
584   2 0.0000  -4.425423   3.712708  8.754238
585   2 0.0000  -6.026236   0.851255 13.132020
586   2 0.0000  -7.627050  -2.010198 17.509802
587   2 0.0000  -9.227863  -4.871650 21.887584
588   2 0.0000 -10.828676  -7.733103 26.265365
589   2 0.0000  -4.425904  11.804012  4.376456
590   2 0.0000  -6.026717   8.942559  8.754238
591   2 0.0000  -7.627531   6.081106 13.132020
592   2 0.0000  -9.228344   3.219654 17.509802
593   2 0.0000 -10.829157   0.358201 21.887584
594   2 0.0000 -12.429971  -2.503251 26.265365
595   2 0.0000  -6.027198  17.033863  4.376456
596   2 0.0000  -7.628012  14.172410  8.754238
597   2 0.0000  -9.228825  11.310958 13.132020
598   2 0.0000 -10.829638   8.449505 17.509802
599   2 0.0000 -12.430452   5.588053 21.887584
600   2 0.0000 -14.031265   2.726600 26.265365
601   2 0.0000   4.246187   1.344309  4.376456
602   2 0.0000   2.645373  -1.517144  8.754238
603   2 0.0000   1.044560  -4.378596 13.132020
604   2 0.0000  -0.556253  -7.240049 17.509802
605   2 0.0000  -2.157067 -10.101502 21.887584
606   2 0.0000  -3.757880 -12.962954 26.265365
607   2 0.0000   2.644892   6.574160  4.376456
608   2 0.0000   1.044079   3.712708  8.754238
609   2 0.0000  -0.556734   0.851255 13.132020
610   2 0.0000  -2.157548  -2.010198 17.509802
611   2 0.0000  -3.758361  -4.871650 21.887584
612   2 0.0000  -5.359174  -7.733103 26.265365
613   2 0.0000   1.043598  11.804012  4.376456
614   2 0.0000  -0.557215   8.942559  8.754238
615   2 0.0000  -2.158029   6.081106 13.132020
616   2 0.0000  -3.758842   3.219654 17.509802
617   2 0.0000  -5.359655   0.358201 21.887584
618   2 0.0000  -6.960469  -2.503251 26.265365
619   2 0.0000  -0.557696  17.033863  4.376456
620   2 0.0000  -2.158510  14.172410  8.754238
621   2 0.0000  -3.759323  11.310958 13.132020
622   2 0.0000  -5.360136   8.449505 17.509802
623   2 0.0000  -6.960949   5.588053 21.887584
624   2 0.0000  -8.561763   2.726600 26.265365
625   2 0.0000   9.715689   1.344309  4.376456
626   2 0.0000   8.114875  -1.517144  8.754238
627   2 0.0000   6.514062  -4.378596 13.132020
628   2 0.0000   4.913249  -7.240049 17.509802
629   2 0.0000   3.312435 -10.101502 21.887584
630   2 0.0000   1.711622 -12.962954 26.265365
631   2 0.0000   8.114394   6.574160  4.376456
632   2 0.0000   6.513581   3.712708  8.754238
633   2 0.0000   4.912768   0.851255 13.132020