Generated by pymatgen.io.lammps.data.LammpsData

192  atoms

  3  atom types

0.000000 10.272194  xlo xhi
0.000000 10.301677  ylo yhi
0.000000 21.452178  zlo zhi
-0.066069 -10.193515 -10.277496  xy xz yz

Masses

1   6.941000
2  88.905850
3  18.998403

Atoms

1    1 0.0000  0.018681 -1.284485  4.002417
2    1 0.0000 -2.529698 -3.853859  9.365462
3    1 0.0000 -5.078077 -6.423233 14.728506
4    1 0.0000 -7.626456 -8.992607 20.091551
5    1 0.0000 -0.014354  3.866354  4.002417
6    1 0.0000 -2.562732  1.296980  9.365462
7    1 0.0000 -5.111111 -1.272394 14.728506
8    1 0.0000 -7.659490 -3.841768 20.091551
9    1 0.0000  5.154778 -1.284485  4.002417
10   1 0.0000  2.606399 -3.853859  9.365462
11   1 0.0000  0.058020 -6.423233 14.728506
12   1 0.0000 -2.490359 -8.992607 20.091551
13   1 0.0000  5.121743  3.866354  4.002417
14   1 0.0000  2.573364  1.296980  9.365462
15   1 0.0000  0.024986 -1.272394 14.728506
16   1 0.0000 -2.523393 -3.841768 20.091551
17   1 0.0000  2.536008  3.865950  1.360628
18   1 0.0000 -0.012371  1.296576  6.723672
19   1 0.0000 -2.560750 -1.272798 12.086717
20   1 0.0000 -5.109129 -3.842172 17.449761
21   1 0.0000  2.502973  9.016788  1.360628
22   1 0.0000 -0.045406  6.447414  6.723672
23   1 0.0000 -2.593784  3.878041 12.086717
24   1 0.0000 -5.142163  1.308667 17.449761
25   1 0.0000  7.672105  3.865950  1.360628
26   1 0.0000  5.123726  1.296576  6.723672
27   1 0.0000  2.575347 -1.272798 12.086717
28   1 0.0000  0.026968 -3.842172 17.449761
29   1 0.0000  7.639070  9.016788  1.360628
30   1 0.0000  5.090691  6.447414  6.723672
31   1 0.0000  2.542313  3.878041 12.086717
32   1 0.0000 -0.006066  1.308667 17.449761
33   2 0.0000 -0.008138  1.288209  1.337615
34   2 0.0000 -2.556517 -1.281164  6.700660
35   2 0.0000 -5.104896 -3.850538 12.063704
36   2 0.0000 -7.653275 -6.419912 17.426749
37   2 0.0000 -0.041173  6.439048  1.337615
38   2 0.0000 -2.589552  3.869674  6.700660
39   2 0.0000 -5.137930  1.300300 12.063704
40   2 0.0000 -7.686309 -1.269074 17.426749
41   2 0.0000  5.127959  1.288209  1.337615
42   2 0.0000  2.579580 -1.281164  6.700660
43   2 0.0000  0.031201 -3.850538 12.063704
44   2 0.0000 -2.517178 -6.419912 17.426749
45   2 0.0000  5.094924  6.439048  1.337615
46   2 0.0000  2.546545  3.869674  6.700660
47   2 0.0000 -0.001834  1.300300 12.063704
48   2 0.0000 -2.550212 -1.269074 17.426749
49   2 0.0000  2.562822  1.293261  4.025429
50   2 0.0000  0.014443 -1.276113  9.388474
51   2 0.0000 -2.533936 -3.845487 14.751519
52   2 0.0000 -5.082315 -6.414861 20.114563
53   2 0.0000  2.529787  6.444099  4.025429
54   2 0.0000 -0.018591  3.874725  9.388474
55   2 0.0000 -2.566970  1.305351 14.751519
56   2 0.0000 -5.115349 -1.264022 20.114563
57   2 0.0000  7.698919  1.293261  4.025429
58   2 0.0000  5.150540 -1.276113  9.388474
59   2 0.0000  2.602161 -3.845487 14.751519
60   2 0.0000  0.053782 -6.414861 20.114563
61   2 0.0000  7.665884  6.444099  4.025429
62   2 0.0000  5.117505  3.874725  9.388474
63   2 0.0000  2.569127  1.305351 14.751519
64   2 0.0000  0.020748 -1.264022 20.114563
65   3 0.0000  0.834603  2.426210  3.147868
66   3 0.0000 -1.713776 -0.143164  8.510912
67   3 0.0000 -4.262155 -2.712538 13.873957
68   3 0.0000 -6.810534 -5.281912 19.237001
69   3 0.0000  0.801568  7.577049  3.147868
70   3 0.0000 -1.746811  5.007675  8.510912
71   3 0.0000 -4.295189  2.438301 13.873957
72   3 0.0000 -6.843568 -0.131073 19.237001
73   3 0.0000  5.970700  2.426210  3.147868
74   3 0.0000  3.422321 -0.143164  8.510912
75   3 0.0000  0.873942 -2.712538 13.873957
76   3 0.0000 -1.674437 -5.281912 19.237001
77   3 0.0000  5.937665  7.577049  3.147868
78   3 0.0000  3.389286  5.007675  8.510912
79   3 0.0000  0.840908  2.438301 13.873957
80   3 0.0000 -1.707471 -0.131073 19.237001
81   3 0.0000  1.112016  3.029606  0.472782
82   3 0.0000 -1.436363  0.460232  5.835827
83   3 0.0000 -3.984742 -2.109142 11.198871
84   3 0.0000 -6.533121 -4.678516 16.561916
85   3 0.0000  1.078981  8.180445  0.472782
86   3 0.0000 -1.469398  5.611071  5.835827
87   3 0.0000 -4.017777  3.041697 11.198871
88   3 0.0000 -6.566155  0.472323 16.561916
89   3 0.0000  6.248112  3.029606  0.472782
90   3 0.0000  3.699734  0.460232  5.835827
91   3 0.0000  1.151355 -2.109142 11.198871
92   3 0.0000 -1.397024 -4.678516 16.561916
93   3 0.0000  6.215078  8.180445  0.472782
94   3 0.0000  3.666699  5.611071  5.835827
95   3 0.0000  1.118320  3.041697 11.198871
96   3 0.0000 -1.430059  0.472323 16.561916
97   3 0.0000  3.400238  2.425612  2.211538
98   3 0.0000  0.851859 -0.143762  7.574582
99   3 0.0000 -1.696520 -2.713136 12.937627
100  3 0.0000 -4.244899 -5.282510 18.300671
101  3 0.0000  3.367203  7.576451  2.211538
102  3 0.0000  0.818824  5.007077  7.574582
103  3 0.0000 -1.729555  2.437703 12.937627
104  3 0.0000 -4.277933 -0.131671 18.300671
105  3 0.0000  8.536334  2.425612  2.211538
106  3 0.0000  5.987956 -0.143762  7.574582
107  3 0.0000  3.439577 -2.713136 12.937627
108  3 0.0000  0.891198 -5.282510 18.300671
109  3 0.0000  8.503300  7.576451  2.211538
110  3 0.0000  5.954921  5.007077  7.574582
111  3 0.0000  3.406542  2.437703 12.937627
112  3 0.0000  0.858163 -0.131671 18.300671
113  3 0.0000  3.972156  4.697452  0.473285
114  3 0.0000  1.423778  2.128078  5.836330
115  3 0.0000 -1.124601 -0.441296 11.199374
116  3 0.0000 -3.672980 -3.010670 16.562419
117  3 0.0000  3.939122  9.848291  0.473285
118  3 0.0000  1.390743  7.278917  5.836330
119  3 0.0000 -1.157636  4.709543 11.199374
120  3 0.0000 -3.706014  2.140169 16.562419
121  3 0.0000  9.108253  4.697452  0.473285
122  3 0.0000  6.559875  2.128078  5.836330
123  3 0.0000  4.011496 -0.441296 11.199374
124  3 0.0000  1.463117 -3.010670 16.562419
125  3 0.0000  9.075219  9.848291  0.473285
126  3 0.0000  6.526840  7.278917  5.836330
127  3 0.0000  3.978461  4.709543 11.199374
128  3 0.0000  1.430082  2.140169 16.562419
129  3 0.0000  1.720081  0.155255  2.215177
130  3 0.0000 -0.828298 -2.414119  7.578221
131  3 0.0000 -3.376677 -4.983493 12.941266
132  3 0.0000 -5.925056 -7.552867 18.304311
133  3 0.0000  1.687046  5.306094  2.215177
134  3 0.0000 -0.861333  2.736720  7.578221
135  3 0.0000 -3.409711  0.167346 12.941266
136  3 0.0000 -5.958090 -2.402028 18.304311
137  3 0.0000  6.856178  0.155255  2.215177
138  3 0.0000  4.307799 -2.414119  7.578221
139  3 0.0000  1.759420 -4.983493 12.941266
140  3 0.0000 -0.788959 -7.552867 18.304311
141  3 0.0000  6.823143  5.306094  2.215177
142  3 0.0000  4.274764  2.736720  7.578221
143  3 0.0000  1.726385  0.167346 12.941266
144  3 0.0000 -0.821993 -2.402028 18.304311
145  3 0.0000 -0.845554  0.155853  3.151507
146  3 0.0000 -3.393933 -2.413521  8.514552
147  3 0.0000 -5.942312 -4.982895 13.877596
148  3 0.0000 -8.490690 -7.552269 19.240641
149  3 0.0000 -0.878589  5.306692  3.151507
150  3 0.0000 -3.426967  2.737318  8.514552
151  3 0.0000 -5.975346  0.167944 13.877596
152  3 0.0000 -8.523725 -2.401430 19.240641
153  3 0.0000  4.290543  0.155853  3.151507
154  3 0.0000  1.742164 -2.413521  8.514552
155  3 0.0000 -0.806215 -4.982895 13.877596
156  3 0.0000 -3.354594 -7.552269 19.240641
157  3 0.0000  4.257508  5.306692  3.151507
158  3 0.0000  1.709130  2.737318  8.514552
159  3 0.0000 -0.839249  0.167944 13.877596
160  3 0.0000 -3.387628 -2.401430 19.240641
161  3 0.0000 -1.417473 -2.115987  4.889759
162  3 0.0000 -3.965852 -4.685361 10.252804
163  3 0.0000 -6.514231 -7.254735 15.615849
164  3 0.0000 -9.062609 -9.824109 20.978893
165  3 0.0000 -1.450507  3.034851  4.889759
166  3 0.0000 -3.998886  0.465477 10.252804
167  3 0.0000 -6.547265 -2.103897 15.615849
168  3 0.0000 -9.095644 -4.673270 20.978893
169  3 0.0000  3.718624 -2.115987  4.889759
170  3 0.0000  1.170245 -4.685361 10.252804
171  3 0.0000 -1.378134 -7.254735 15.615849
172  3 0.0000 -3.926513 -9.824109 20.978893
173  3 0.0000  3.685589  3.034851  4.889759
174  3 0.0000  1.137211  0.465477 10.252804
175  3 0.0000 -1.411168 -2.103897 15.615849
176  3 0.0000 -3.959547 -4.673270 20.978893
177  3 0.0000  1.442668 -0.448141  4.890262
178  3 0.0000 -1.105711 -3.017515 10.253307
179  3 0.0000 -3.654090 -5.586889 15.616351
180  3 0.0000 -6.202469 -8.156263 20.979396
181  3 0.0000  1.409633  4.702698  4.890262
182  3 0.0000 -1.138745  2.133324 10.253307
183  3 0.0000 -3.687124 -0.436050 15.616351
184  3 0.0000 -6.235503 -3.005424 20.979396
185  3 0.0000  6.578765 -0.448141  4.890262
186  3 0.0000  4.030386 -3.017515 10.253307
187  3 0.0000  1.482007 -5.586889 15.616351
188  3 0.0000 -1.066372 -8.156263 20.979396
189  3 0.0000  6.545730  4.702698  4.890262
190  3 0.0000  3.997351  2.133324 10.253307
191  3 0.0000  1.448973 -0.436050 15.616351
192  3 0.0000 -1.099406 -3.005424 20.979396

