Generated by pymatgen.io.lammps.data.LammpsData

1152  atoms

   3  atom types

0.000000 20.544387  xlo xhi
0.000000 20.603355  ylo yhi
0.000000 32.178268  zlo zhi
-0.132138 -15.290273 -15.416244  xy xz yz

Masses

1   6.941000
2  88.905850
3  18.998403

Atoms

1     1 0.0000   0.018681  -1.284485  4.002417
2     1 0.0000  -2.529698  -3.853859  9.365462
3     1 0.0000  -5.078077  -6.423233 14.728506
4     1 0.0000  -7.626456  -8.992607 20.091551
5     1 0.0000 -10.174834 -11.561980 25.454595
6     1 0.0000 -12.723213 -14.131354 30.817640
7     1 0.0000  -0.014354   3.866354  4.002417
8     1 0.0000  -2.562732   1.296980  9.365462
9     1 0.0000  -5.111111  -1.272394 14.728506
10    1 0.0000  -7.659490  -3.841768 20.091551
11    1 0.0000 -10.207869  -6.411142 25.454595
12    1 0.0000 -12.756248  -8.980516 30.817640
13    1 0.0000  -0.047388   9.017193  4.002417
14    1 0.0000  -2.595767   6.447819  9.365462
15    1 0.0000  -5.144146   3.878445 14.728506
16    1 0.0000  -7.692525   1.309071 20.091551
17    1 0.0000 -10.240903  -1.260303 25.454595
18    1 0.0000 -12.789282  -3.829677 30.817640
19    1 0.0000  -0.080423  14.168031  4.002417
20    1 0.0000  -2.628801  11.598658  9.365462
21    1 0.0000  -5.177180   9.029284 14.728506
22    1 0.0000  -7.725559   6.459910 20.091551
23    1 0.0000 -10.273938   3.890536 25.454595
24    1 0.0000 -12.822317   1.321162 30.817640
25    1 0.0000   5.154778  -1.284485  4.002417
26    1 0.0000   2.606399  -3.853859  9.365462
27    1 0.0000   0.058020  -6.423233 14.728506
28    1 0.0000  -2.490359  -8.992607 20.091551
29    1 0.0000  -5.038738 -11.561980 25.454595
30    1 0.0000  -7.587116 -14.131354 30.817640
31    1 0.0000   5.121743   3.866354  4.002417
32    1 0.0000   2.573364   1.296980  9.365462
33    1 0.0000   0.024986  -1.272394 14.728506
34    1 0.0000  -2.523393  -3.841768 20.091551
35    1 0.0000  -5.071772  -6.411142 25.454595
36    1 0.0000  -7.620151  -8.980516 30.817640
37    1 0.0000   5.088709   9.017193  4.002417
38    1 0.0000   2.540330   6.447819  9.365462
39    1 0.0000  -0.008049   3.878445 14.728506
40    1 0.0000  -2.556428   1.309071 20.091551
41    1 0.0000  -5.104807  -1.260303 25.454595
42    1 0.0000  -7.653185  -3.829677 30.817640
43    1 0.0000   5.055674  14.168031  4.002417
44    1 0.0000   2.507295  11.598658  9.365462
45    1 0.0000  -0.041083   9.029284 14.728506
46    1 0.0000  -2.589462   6.459910 20.091551
47    1 0.0000  -5.137841   3.890536 25.454595
48    1 0.0000  -7.686220   1.321162 30.817640
49    1 0.0000  10.290875  -1.284485  4.002417
50    1 0.0000   7.742496  -3.853859  9.365462
51    1 0.0000   5.194117  -6.423233 14.728506
52    1 0.0000   2.645738  -8.992607 20.091551
53    1 0.0000   0.097359 -11.561980 25.454595
54    1 0.0000  -2.451019 -14.131354 30.817640
55    1 0.0000  10.257840   3.866354  4.002417
56    1 0.0000   7.709461   1.296980  9.365462
57    1 0.0000   5.161082  -1.272394 14.728506
58    1 0.0000   2.612704  -3.841768 20.091551
59    1 0.0000   0.064325  -6.411142 25.454595
60    1 0.0000  -2.484054  -8.980516 30.817640
61    1 0.0000  10.224806   9.017193  4.002417
62    1 0.0000   7.676427   6.447819  9.365462
63    1 0.0000   5.128048   3.878445 14.728506
64    1 0.0000   2.579669   1.309071 20.091551
65    1 0.0000   0.031290  -1.260303 25.454595
66    1 0.0000  -2.517088  -3.829677 30.817640
67    1 0.0000  10.191771  14.168031  4.002417
68    1 0.0000   7.643392  11.598658  9.365462
69    1 0.0000   5.095013   9.029284 14.728506
70    1 0.0000   2.546635   6.459910 20.091551
71    1 0.0000  -0.001744   3.890536 25.454595
72    1 0.0000  -2.550123   1.321162 30.817640
73    1 0.0000  15.426971  -1.284485  4.002417
74    1 0.0000  12.878593  -3.853859  9.365462
75    1 0.0000  10.330214  -6.423233 14.728506
76    1 0.0000   7.781835  -8.992607 20.091551
77    1 0.0000   5.233456 -11.561980 25.454595
78    1 0.0000   2.685077 -14.131354 30.817640
79    1 0.0000  15.393937   3.866354  4.002417
80    1 0.0000  12.845558   1.296980  9.365462
81    1 0.0000  10.297179  -1.272394 14.728506
82    1 0.0000   7.748801  -3.841768 20.091551
83    1 0.0000   5.200422  -6.411142 25.454595
84    1 0.0000   2.652043  -8.980516 30.817640
85    1 0.0000  15.360902   9.017193  4.002417
86    1 0.0000  12.812524   6.447819  9.365462
87    1 0.0000  10.264145   3.878445 14.728506
88    1 0.0000   7.715766   1.309071 20.091551
89    1 0.0000   5.167387  -1.260303 25.454595
90    1 0.0000   2.619008  -3.829677 30.817640
91    1 0.0000  15.327868  14.168031  4.002417
92    1 0.0000  12.779489  11.598658  9.365462
93    1 0.0000  10.231110   9.029284 14.728506
94    1 0.0000   7.682732   6.459910 20.091551
95    1 0.0000   5.134353   3.890536 25.454595
96    1 0.0000   2.585974   1.321162 30.817640
97    1 0.0000   2.536008   3.865950  1.360628
98    1 0.0000  -0.012371   1.296576  6.723672
99    1 0.0000  -2.560750  -1.272798 12.086717
100   1 0.0000  -5.109129  -3.842172 17.449761
101   1 0.0000  -7.657507  -6.411546 22.812806
102   1 0.0000 -10.205886  -8.980920 28.175851
103   1 0.0000   2.502973   9.016788  1.360628
104   1 0.0000  -0.045406   6.447414  6.723672
105   1 0.0000  -2.593784   3.878041 12.086717
106   1 0.0000  -5.142163   1.308667 17.449761
107   1 0.0000  -7.690542  -1.260707 22.812806
108   1 0.0000 -10.238921  -3.830081 28.175851
109   1 0.0000   2.469939  14.167627  1.360628
110   1 0.0000  -0.078440  11.598253  6.723672
111   1 0.0000  -2.626819   9.028879 12.086717
112   1 0.0000  -5.175198   6.459505 17.449761
113   1 0.0000  -7.723576   3.890131 22.812806
114   1 0.0000 -10.271955   1.320757 28.175851
115   1 0.0000   2.436904  19.318466  1.360628
116   1 0.0000  -0.111475  16.749092  6.723672
117   1 0.0000  -2.659853  14.179718 12.086717
118   1 0.0000  -5.208232  11.610344 17.449761
119   1 0.0000  -7.756611   9.040970 22.812806
120   1 0.0000 -10.304990   6.471596 28.175851
121   1 0.0000   7.672105   3.865950  1.360628
122   1 0.0000   5.123726   1.296576  6.723672
123   1 0.0000   2.575347  -1.272798 12.086717
124   1 0.0000   0.026968  -3.842172 17.449761
125   1 0.0000  -2.521411  -6.411546 22.812806
126   1 0.0000  -5.069789  -8.980920 28.175851
127   1 0.0000   7.639070   9.016788  1.360628
128   1 0.0000   5.090691   6.447414  6.723672
129   1 0.0000   2.542313   3.878041 12.086717
130   1 0.0000  -0.006066   1.308667 17.449761
131   1 0.0000  -2.554445  -1.260707 22.812806
132   1 0.0000  -5.102824  -3.830081 28.175851
133   1 0.0000   7.606036  14.167627  1.360628
134   1 0.0000   5.057657  11.598253  6.723672
135   1 0.0000   2.509278   9.028879 12.086717
136   1 0.0000  -0.039101   6.459505 17.449761
137   1 0.0000  -2.587480   3.890131 22.812806
138   1 0.0000  -5.135858   1.320757 28.175851
139   1 0.0000   7.573001  19.318466  1.360628
140   1 0.0000   5.024622  16.749092  6.723672
141   1 0.0000   2.476244  14.179718 12.086717
142   1 0.0000  -0.072135  11.610344 17.449761
143   1 0.0000  -2.620514   9.040970 22.812806
144   1 0.0000  -5.168893   6.471596 28.175851
145   1 0.0000  12.808202   3.865950  1.360628
146   1 0.0000  10.259823   1.296576  6.723672
147   1 0.0000   7.711444  -1.272798 12.086717
148   1 0.0000   5.163065  -3.842172 17.449761
149   1 0.0000   2.614686  -6.411546 22.812806
150   1 0.0000   0.066307  -8.980920 28.175851
151   1 0.0000  12.775167   9.016788  1.360628
152   1 0.0000  10.226788   6.447414  6.723672
153   1 0.0000   7.678409   3.878041 12.086717
154   1 0.0000   5.130031   1.308667 17.449761
155   1 0.0000   2.581652  -1.260707 22.812806
156   1 0.0000   0.033273  -3.830081 28.175851
157   1 0.0000  12.742133  14.167627  1.360628
158   1 0.0000  10.193754  11.598253  6.723672
159   1 0.0000   7.645375   9.028879 12.086717
160   1 0.0000   5.096996   6.459505 17.449761
161   1 0.0000   2.548617   3.890131 22.812806
162   1 0.0000   0.000238   1.320757 28.175851
163   1 0.0000  12.709098  19.318466  1.360628
164   1 0.0000  10.160719  16.749092  6.723672
165   1 0.0000   7.612340  14.179718 12.086717
166   1 0.0000   5.063962  11.610344 17.449761
167   1 0.0000   2.515583   9.040970 22.812806
168   1 0.0000  -0.032796   6.471596 28.175851
169   1 0.0000  17.944298   3.865950  1.360628
170   1 0.0000  15.395920   1.296576  6.723672
171   1 0.0000  12.847541  -1.272798 12.086717
172   1 0.0000  10.299162  -3.842172 17.449761
173   1 0.0000   7.750783  -6.411546 22.812806
174   1 0.0000   5.202404  -8.980920 28.175851
175   1 0.0000  17.911264   9.016788  1.360628
176   1 0.0000  15.362885   6.447414  6.723672
177   1 0.0000  12.814506   3.878041 12.086717
178   1 0.0000  10.266127   1.308667 17.449761
179   1 0.0000   7.717749  -1.260707 22.812806
180   1 0.0000   5.169370  -3.830081 28.175851
181   1 0.0000  17.878229  14.167627  1.360628
182   1 0.0000  15.329851  11.598253  6.723672
183   1 0.0000  12.781472   9.028879 12.086717
184   1 0.0000  10.233093   6.459505 17.449761
185   1 0.0000   7.684714   3.890131 22.812806
186   1 0.0000   5.136335   1.320757 28.175851
187   1 0.0000  17.845195  19.318466  1.360628
188   1 0.0000  15.296816  16.749092  6.723672
189   1 0.0000  12.748437  14.179718 12.086717
190   1 0.0000  10.200058  11.610344 17.449761
191   1 0.0000   7.651680   9.040970 22.812806
192   1 0.0000   5.103301   6.471596 28.175851
193   2 0.0000  -0.008138   1.288209  1.337615
194   2 0.0000  -2.556517  -1.281164  6.700660
195   2 0.0000  -5.104896  -3.850538 12.063704
196   2 0.0000  -7.653275  -6.419912 17.426749
197   2 0.0000 -10.201654  -8.989286 22.789794
198   2 0.0000 -12.750032 -11.558660 28.152838
199   2 0.0000  -0.041173   6.439048  1.337615
200   2 0.0000  -2.589552   3.869674  6.700660
201   2 0.0000  -5.137930   1.300300 12.063704
202   2 0.0000  -7.686309  -1.269074 17.426749
203   2 0.0000 -10.234688  -3.838447 22.789794
204   2 0.0000 -12.783067  -6.407821 28.152838
205   2 0.0000  -0.074207  11.589887  1.337615
206   2 0.0000  -2.622586   9.020513  6.700660
207   2 0.0000  -5.170965   6.451139 12.063704
208   2 0.0000  -7.719344   3.881765 17.426749
209   2 0.0000 -10.267723   1.312391 22.789794
210   2 0.0000 -12.816101  -1.256983 28.152838
211   2 0.0000  -0.107242  16.740726  1.337615
212   2 0.0000  -2.655621  14.171352  6.700660
213   2 0.0000  -5.203999  11.601978 12.063704
214   2 0.0000  -7.752378   9.032604 17.426749
215   2 0.0000 -10.300757   6.463230 22.789794
216   2 0.0000 -12.849136   3.893856 28.152838
217   2 0.0000   5.127959   1.288209  1.337615
218   2 0.0000   2.579580  -1.281164  6.700660
219   2 0.0000   0.031201  -3.850538 12.063704
220   2 0.0000  -2.517178  -6.419912 17.426749
221   2 0.0000  -5.065557  -8.989286 22.789794
222   2 0.0000  -7.613936 -11.558660 28.152838
223   2 0.0000   5.094924   6.439048  1.337615
224   2 0.0000   2.546545   3.869674  6.700660
225   2 0.0000  -0.001834   1.300300 12.063704
226   2 0.0000  -2.550212  -1.269074 17.426749
227   2 0.0000  -5.098591  -3.838447 22.789794
228   2 0.0000  -7.646970  -6.407821 28.152838
229   2 0.0000   5.061890  11.589887  1.337615
230   2 0.0000   2.513511   9.020513  6.700660
231   2 0.0000  -0.034868   6.451139 12.063704
232   2 0.0000  -2.583247   3.881765 17.426749
233   2 0.0000  -5.131626   1.312391 22.789794
234   2 0.0000  -7.680005  -1.256983 28.152838
235   2 0.0000   5.028855  16.740726  1.337615
236   2 0.0000   2.480476  14.171352  6.700660
237   2 0.0000  -0.067903  11.601978 12.063704
238   2 0.0000  -2.616281   9.032604 17.426749
239   2 0.0000  -5.164660   6.463230 22.789794
240   2 0.0000  -7.713039   3.893856 28.152838
241   2 0.0000  10.264055   1.288209  1.337615
242   2 0.0000   7.715677  -1.281164  6.700660
243   2 0.0000   5.167298  -3.850538 12.063704
244   2 0.0000   2.618919  -6.419912 17.426749
245   2 0.0000   0.070540  -8.989286 22.789794
246   2 0.0000  -2.477839 -11.558660 28.152838
247   2 0.0000  10.231021   6.439048  1.337615
248   2 0.0000   7.682642   3.869674  6.700660
249   2 0.0000   5.134263   1.300300 12.063704
250   2 0.0000   2.585884  -1.269074 17.426749
251   2 0.0000   0.037506  -3.838447 22.789794
252   2 0.0000  -2.510873  -6.407821 28.152838
253   2 0.0000  10.197986  11.589887  1.337615
254   2 0.0000   7.649608   9.020513  6.700660
255   2 0.0000   5.101229   6.451139 12.063704
256   2 0.0000   2.552850   3.881765 17.426749
257   2 0.0000   0.004471   1.312391 22.789794
258   2 0.0000  -2.543908  -1.256983 28.152838
259   2 0.0000  10.164952  16.740726  1.337615
260   2 0.0000   7.616573  14.171352  6.700660
261   2 0.0000   5.068194  11.601978 12.063704
262   2 0.0000   2.519815   9.032604 17.426749
263   2 0.0000  -0.028563   6.463230 22.789794
264   2 0.0000  -2.576942   3.893856 28.152838
265   2 0.0000  15.400152   1.288209  1.337615
266   2 0.0000  12.851773  -1.281164  6.700660
267   2 0.0000  10.303395  -3.850538 12.063704
268   2 0.0000   7.755016  -6.419912 17.426749
269   2 0.0000   5.206637  -8.989286 22.789794
270   2 0.0000   2.658258 -11.558660 28.152838
271   2 0.0000  15.367118   6.439048  1.337615
272   2 0.0000  12.818739   3.869674  6.700660
273   2 0.0000  10.270360   1.300300 12.063704
274   2 0.0000   7.721981  -1.269074 17.426749
275   2 0.0000   5.173603  -3.838447 22.789794
276   2 0.0000   2.625224  -6.407821 28.152838
277   2 0.0000  15.334083  11.589887  1.337615
278   2 0.0000  12.785704   9.020513  6.700660
279   2 0.0000  10.237326   6.451139 12.063704
280   2 0.0000   7.688947   3.881765 17.426749
281   2 0.0000   5.140568   1.312391 22.789794
282   2 0.0000   2.592189  -1.256983 28.152838
283   2 0.0000  15.301049  16.740726  1.337615
284   2 0.0000  12.752670  14.171352  6.700660
285   2 0.0000  10.204291  11.601978 12.063704
286   2 0.0000   7.655912   9.032604 17.426749
287   2 0.0000   5.107534   6.463230 22.789794
288   2 0.0000   2.559155   3.893856 28.152838
289   2 0.0000   2.562822   1.293261  4.025429
290   2 0.0000   0.014443  -1.276113  9.388474
291   2 0.0000  -2.533936  -3.845487 14.751519
292   2 0.0000  -5.082315  -6.414861 20.114563
293   2 0.0000  -7.630693  -8.984235 25.477608
294   2 0.0000 -10.179072 -11.553609 30.840652
295   2 0.0000   2.529787   6.444099  4.025429
296   2 0.0000  -0.018591   3.874725  9.388474
297   2 0.0000  -2.566970   1.305351 14.751519
298   2 0.0000  -5.115349  -1.264022 20.114563
299   2 0.0000  -7.663728  -3.833396 25.477608
300   2 0.0000 -10.212107  -6.402770 30.840652
301   2 0.0000   2.496753  11.594938  4.025429
302   2 0.0000  -0.051626   9.025564  9.388474
303   2 0.0000  -2.600005   6.456190 14.751519
304   2 0.0000  -5.148384   3.886816 20.114563
305   2 0.0000  -7.696762   1.317442 25.477608
306   2 0.0000 -10.245141  -1.251932 30.840652
307   2 0.0000   2.463718  16.745777  4.025429
308   2 0.0000  -0.084660  14.176403  9.388474
309   2 0.0000  -2.633039  11.607029 14.751519
310   2 0.0000  -5.181418   9.037655 20.114563
311   2 0.0000  -7.729797   6.468281 25.477608
312   2 0.0000 -10.278176   3.898907 30.840652
313   2 0.0000   7.698919   1.293261  4.025429
314   2 0.0000   5.150540  -1.276113  9.388474
315   2 0.0000   2.602161  -3.845487 14.751519
316   2 0.0000   0.053782  -6.414861 20.114563
317   2 0.0000  -2.494597  -8.984235 25.477608
318   2 0.0000  -5.042975 -11.553609 30.840652
319   2 0.0000   7.665884   6.444099  4.025429
320   2 0.0000   5.117505   3.874725  9.388474
321   2 0.0000   2.569127   1.305351 14.751519
322   2 0.0000   0.020748  -1.264022 20.114563
323   2 0.0000  -2.527631  -3.833396 25.477608
324   2 0.0000  -5.076010  -6.402770 30.840652
325   2 0.0000   7.632850  11.594938  4.025429
326   2 0.0000   5.084471   9.025564  9.388474
327   2 0.0000   2.536092   6.456190 14.751519
328   2 0.0000  -0.012287   3.886816 20.114563
329   2 0.0000  -2.560666   1.317442 25.477608
330   2 0.0000  -5.109044  -1.251932 30.840652
331   2 0.0000   7.599815  16.745777  4.025429
332   2 0.0000   5.051436  14.176403  9.388474
333   2 0.0000   2.503058  11.607029 14.751519
334   2 0.0000  -0.045321   9.037655 20.114563
335   2 0.0000  -2.593700   6.468281 25.477608
336   2 0.0000  -5.142079   3.898907 30.840652
337   2 0.0000  12.835016   1.293261  4.025429
338   2 0.0000  10.286637  -1.276113  9.388474
339   2 0.0000   7.738258  -3.845487 14.751519
340   2 0.0000   5.189879  -6.414861 20.114563
341   2 0.0000   2.641500  -8.984235 25.477608
342   2 0.0000   0.093121 -11.553609 30.840652
343   2 0.0000  12.801981   6.444099  4.025429
344   2 0.0000  10.253602   3.874725  9.388474
345   2 0.0000   7.705223   1.305351 14.751519
346   2 0.0000   5.156845  -1.264022 20.114563
347   2 0.0000   2.608466  -3.833396 25.477608
348   2 0.0000   0.060087  -6.402770 30.840652
349   2 0.0000  12.768947  11.594938  4.025429
350   2 0.0000  10.220568   9.025564  9.388474
351   2 0.0000   7.672189   6.456190 14.751519
352   2 0.0000   5.123810   3.886816 20.114563
353   2 0.0000   2.575431   1.317442 25.477608
354   2 0.0000   0.027052  -1.251932 30.840652
355   2 0.0000  12.735912  16.745777  4.025429
356   2 0.0000  10.187533  14.176403  9.388474
357   2 0.0000   7.639154  11.607029 14.751519
358   2 0.0000   5.090776   9.037655 20.114563
359   2 0.0000   2.542397   6.468281 25.477608
360   2 0.0000  -0.005982   3.898907 30.840652
361   2 0.0000  17.971112   1.293261  4.025429
362   2 0.0000  15.422734  -1.276113  9.388474
363   2 0.0000  12.874355  -3.845487 14.751519
364   2 0.0000  10.325976  -6.414861 20.114563
365   2 0.0000   7.777597  -8.984235 25.477608
366   2 0.0000   5.229218 -11.553609 30.840652
367   2 0.0000  17.938078   6.444099  4.025429
368   2 0.0000  15.389699   3.874725  9.388474
369   2 0.0000  12.841320   1.305351 14.751519
370   2 0.0000  10.292941  -1.264022 20.114563
371   2 0.0000   7.744563  -3.833396 25.477608
372   2 0.0000   5.196184  -6.402770 30.840652
373   2 0.0000  17.905043  11.594938  4.025429
374   2 0.0000  15.356665   9.025564  9.388474
375   2 0.0000  12.808286   6.456190 14.751519
376   2 0.0000  10.259907   3.886816 20.114563
377   2 0.0000   7.711528   1.317442 25.477608
378   2 0.0000   5.163149  -1.251932 30.840652
379   2 0.0000  17.872009  16.745777  4.025429
380   2 0.0000  15.323630  14.176403  9.388474
381   2 0.0000  12.775251  11.607029 14.751519
382   2 0.0000  10.226872   9.037655 20.114563
383   2 0.0000   7.678494   6.468281 25.477608
384   2 0.0000   5.130115   3.898907 30.840652
385   3 0.0000   0.834603   2.426210  3.147868
386   3 0.0000  -1.713776  -0.143164  8.510912
387   3 0.0000  -4.262155  -2.712538 13.873957
388   3 0.0000  -6.810534  -5.281912 19.237001
389   3 0.0000  -9.358912  -7.851286 24.600046
390   3 0.0000 -11.907291 -10.420660 29.963091
391   3 0.0000   0.801568   7.577049  3.147868
392   3 0.0000  -1.746811   5.007675  8.510912
393   3 0.0000  -4.295189   2.438301 13.873957
394   3 0.0000  -6.843568  -0.131073 19.237001
395   3 0.0000  -9.391947  -2.700447 24.600046
396   3 0.0000 -11.940326  -5.269821 29.963091
397   3 0.0000   0.768534  12.727888  3.147868
398   3 0.0000  -1.779845  10.158514  8.510912
399   3 0.0000  -4.328224   7.589140 13.873957
400   3 0.0000  -6.876603   5.019766 19.237001
401   3 0.0000  -9.424981   2.450392 24.600046
402   3 0.0000 -11.973360  -0.118982 29.963091
403   3 0.0000   0.735499  17.878726  3.147868
404   3 0.0000  -1.812880  15.309352  8.510912
405   3 0.0000  -4.361258  12.739978 13.873957
406   3 0.0000  -6.909637  10.170604 19.237001
407   3 0.0000  -9.458016   7.601231 24.600046
408   3 0.0000 -12.006395   5.031857 29.963091
409   3 0.0000   5.970700   2.426210  3.147868
410   3 0.0000   3.422321  -0.143164  8.510912
411   3 0.0000   0.873942  -2.712538 13.873957
412   3 0.0000  -1.674437  -5.281912 19.237001
413   3 0.0000  -4.222816  -7.851286 24.600046
414   3 0.0000  -6.771194 -10.420660 29.963091
415   3 0.0000   5.937665   7.577049  3.147868
416   3 0.0000   3.389286   5.007675  8.510912
417   3 0.0000   0.840908   2.438301 13.873957
418   3 0.0000  -1.707471  -0.131073 19.237001
419   3 0.0000  -4.255850  -2.700447 24.600046
420   3 0.0000  -6.804229  -5.269821 29.963091
421   3 0.0000   5.904631  12.727888  3.147868
422   3 0.0000   3.356252  10.158514  8.510912
423   3 0.0000   0.807873   7.589140 13.873957
424   3 0.0000  -1.740506   5.019766 19.237001
425   3 0.0000  -4.288885   2.450392 24.600046
426   3 0.0000  -6.837263  -0.118982 29.963091
427   3 0.0000   5.871596  17.878726  3.147868
428   3 0.0000   3.323217  15.309352  8.510912
429   3 0.0000   0.774839  12.739978 13.873957
430   3 0.0000  -1.773540  10.170604 19.237001
431   3 0.0000  -4.321919   7.601231 24.600046
432   3 0.0000  -6.870298   5.031857 29.963091
433   3 0.0000  11.106797   2.426210  3.147868
434   3 0.0000   8.558418  -0.143164  8.510912
435   3 0.0000   6.010039  -2.712538 13.873957
436   3 0.0000   3.461660  -5.281912 19.237001
437   3 0.0000   0.913281  -7.851286 24.600046
438   3 0.0000  -1.635098 -10.420660 29.963091
439   3 0.0000  11.073762   7.577049  3.147868
440   3 0.0000   8.525383   5.007675  8.510912
441   3 0.0000   5.977004   2.438301 13.873957
442   3 0.0000   3.428626  -0.131073 19.237001
443   3 0.0000   0.880247  -2.700447 24.600046
444   3 0.0000  -1.668132  -5.269821 29.963091
445   3 0.0000  11.040728  12.727888  3.147868
446   3 0.0000   8.492349  10.158514  8.510912
447   3 0.0000   5.943970   7.589140 13.873957
448   3 0.0000   3.395591   5.019766 19.237001
449   3 0.0000   0.847212   2.450392 24.600046
450   3 0.0000  -1.701167  -0.118982 29.963091
451   3 0.0000  11.007693  17.878726  3.147868
452   3 0.0000   8.459314  15.309352  8.510912
453   3 0.0000   5.910935  12.739978 13.873957
454   3 0.0000   3.362557  10.170604 19.237001
455   3 0.0000   0.814178   7.601231 24.600046
456   3 0.0000  -1.734201   5.031857 29.963091
457   3 0.0000  16.242893   2.426210  3.147868
458   3 0.0000  13.694515  -0.143164  8.510912
459   3 0.0000  11.146136  -2.712538 13.873957
460   3 0.0000   8.597757  -5.281912 19.237001
461   3 0.0000   6.049378  -7.851286 24.600046
462   3 0.0000   3.500999 -10.420660 29.963091
463   3 0.0000  16.209859   7.577049  3.147868
464   3 0.0000  13.661480   5.007675  8.510912
465   3 0.0000  11.113101   2.438301 13.873957
466   3 0.0000   8.564722  -0.131073 19.237001
467   3 0.0000   6.016344  -2.700447 24.600046
468   3 0.0000   3.467965  -5.269821 29.963091
469   3 0.0000  16.176824  12.727888  3.147868
470   3 0.0000  13.628446  10.158514  8.510912
471   3 0.0000  11.080067   7.589140 13.873957
472   3 0.0000   8.531688   5.019766 19.237001
473   3 0.0000   5.983309   2.450392 24.600046
474   3 0.0000   3.434930  -0.118982 29.963091
475   3 0.0000  16.143790  17.878726  3.147868
476   3 0.0000  13.595411  15.309352  8.510912
477   3 0.0000  11.047032  12.739978 13.873957
478   3 0.0000   8.498653  10.170604 19.237001
479   3 0.0000   5.950275   7.601231 24.600046
480   3 0.0000   3.401896   5.031857 29.963091
481   3 0.0000   1.112016   3.029606  0.472782
482   3 0.0000  -1.436363   0.460232  5.835827
483   3 0.0000  -3.984742  -2.109142 11.198871
484   3 0.0000  -6.533121  -4.678516 16.561916
485   3 0.0000  -9.081500  -7.247890 21.924961
486   3 0.0000 -11.629879  -9.817264 27.288005
487   3 0.0000   1.078981   8.180445  0.472782
488   3 0.0000  -1.469398   5.611071  5.835827
489   3 0.0000  -4.017777   3.041697 11.198871
490   3 0.0000  -6.566155   0.472323 16.561916
491   3 0.0000  -9.114534  -2.097051 21.924961
492   3 0.0000 -11.662913  -4.666425 27.288005
493   3 0.0000   1.045947  13.331284  0.472782
494   3 0.0000  -1.502432  10.761910  5.835827
495   3 0.0000  -4.050811   8.192536 11.198871
496   3 0.0000  -6.599190   5.623162 16.561916
497   3 0.0000  -9.147569   3.053788 21.924961
498   3 0.0000 -11.695948   0.484414 27.288005
499   3 0.0000   1.012912  18.482122  0.472782
500   3 0.0000  -1.535467  15.912748  5.835827
501   3 0.0000  -4.083846  13.343374 11.198871
502   3 0.0000  -6.632224  10.774001 16.561916
503   3 0.0000  -9.180603   8.204627 21.924961
504   3 0.0000 -11.728982   5.635253 27.288005
505   3 0.0000   6.248112   3.029606  0.472782
506   3 0.0000   3.699734   0.460232  5.835827
507   3 0.0000   1.151355  -2.109142 11.198871
508   3 0.0000  -1.397024  -4.678516 16.561916
509   3 0.0000  -3.945403  -7.247890 21.924961
510   3 0.0000  -6.493782  -9.817264 27.288005
511   3 0.0000   6.215078   8.180445  0.472782
512   3 0.0000   3.666699   5.611071  5.835827
513   3 0.0000   1.118320   3.041697 11.198871
514   3 0.0000  -1.430059   0.472323 16.561916
515   3 0.0000  -3.978437  -2.097051 21.924961
516   3 0.0000  -6.526816  -4.666425 27.288005
517   3 0.0000   6.182043  13.331284  0.472782
518   3 0.0000   3.633665  10.761910  5.835827
519   3 0.0000   1.085286   8.192536 11.198871
520   3 0.0000  -1.463093   5.623162 16.561916
521   3 0.0000  -4.011472   3.053788 21.924961
522   3 0.0000  -6.559851   0.484414 27.288005
523   3 0.0000   6.149009  18.482122  0.472782
524   3 0.0000   3.600630  15.912748  5.835827
525   3 0.0000   1.052251  13.343374 11.198871
526   3 0.0000  -1.496128  10.774001 16.561916
527   3 0.0000  -4.044506   8.204627 21.924961
528   3 0.0000  -6.592885   5.635253 27.288005
529   3 0.0000  11.384209   3.029606  0.472782
530   3 0.0000   8.835831   0.460232  5.835827
531   3 0.0000   6.287452  -2.109142 11.198871
532   3 0.0000   3.739073  -4.678516 16.561916
533   3 0.0000   1.190694  -7.247890 21.924961
534   3 0.0000  -1.357685  -9.817264 27.288005
535   3 0.0000  11.351175   8.180445  0.472782
536   3 0.0000   8.802796   5.611071  5.835827
537   3 0.0000   6.254417   3.041697 11.198871
538   3 0.0000   3.706038   0.472323 16.561916
539   3 0.0000   1.157660  -2.097051 21.924961
540   3 0.0000  -1.390719  -4.666425 27.288005
541   3 0.0000  11.318140  13.331284  0.472782
542   3 0.0000   8.769762  10.761910  5.835827
543   3 0.0000   6.221383   8.192536 11.198871
544   3 0.0000   3.673004   5.623162 16.561916
545   3 0.0000   1.124625   3.053788 21.924961
546   3 0.0000  -1.423754   0.484414 27.288005
547   3 0.0000  11.285106  18.482122  0.472782
548   3 0.0000   8.736727  15.912748  5.835827
549   3 0.0000   6.188348  13.343374 11.198871
550   3 0.0000   3.639969  10.774001 16.561916
551   3 0.0000   1.091591   8.204627 21.924961
552   3 0.0000  -1.456788   5.635253 27.288005
553   3 0.0000  16.520306   3.029606  0.472782
554   3 0.0000  13.971927   0.460232  5.835827
555   3 0.0000  11.423549  -2.109142 11.198871
556   3 0.0000   8.875170  -4.678516 16.561916
557   3 0.0000   6.326791  -7.247890 21.924961
558   3 0.0000   3.778412  -9.817264 27.288005
559   3 0.0000  16.487272   8.180445  0.472782
560   3 0.0000  13.938893   5.611071  5.835827
561   3 0.0000  11.390514   3.041697 11.198871
562   3 0.0000   8.842135   0.472323 16.561916
563   3 0.0000   6.293756  -2.097051 21.924961
564   3 0.0000   3.745378  -4.666425 27.288005
565   3 0.0000  16.454237  13.331284  0.472782
566   3 0.0000  13.905858  10.761910  5.835827
567   3 0.0000  11.357480   8.192536 11.198871
568   3 0.0000   8.809101   5.623162 16.561916
569   3 0.0000   6.260722   3.053788 21.924961
570   3 0.0000   3.712343   0.484414 27.288005
571   3 0.0000  16.421203  18.482122  0.472782
572   3 0.0000  13.872824  15.912748  5.835827
573   3 0.0000  11.324445  13.343374 11.198871
574   3 0.0000   8.776066  10.774001 16.561916
575   3 0.0000   6.227687   8.204627 21.924961
576   3 0.0000   3.679309   5.635253 27.288005
577   3 0.0000   3.400238   2.425612  2.211538
578   3 0.0000   0.851859  -0.143762  7.574582
579   3 0.0000  -1.696520  -2.713136 12.937627
580   3 0.0000  -4.244899  -5.282510 18.300671
581   3 0.0000  -6.793278  -7.851884 23.663716
582   3 0.0000  -9.341657 -10.421258 29.026761
583   3 0.0000   3.367203   7.576451  2.211538
584   3 0.0000   0.818824   5.007077  7.574582
585   3 0.0000  -1.729555   2.437703 12.937627
586   3 0.0000  -4.277933  -0.131671 18.300671
587   3 0.0000  -6.826312  -2.701045 23.663716
588   3 0.0000  -9.374691  -5.270419 29.026761
589   3 0.0000   3.334169  12.727290  2.211538
590   3 0.0000   0.785790  10.157916  7.574582
591   3 0.0000  -1.762589   7.588542 12.937627
592   3 0.0000  -4.310968   5.019168 18.300671
593   3 0.0000  -6.859347   2.449794 23.663716
594   3 0.0000  -9.407726  -0.119580 29.026761
595   3 0.0000   3.301134  17.878128  2.211538
596   3 0.0000   0.752755  15.308754  7.574582
597   3 0.0000  -1.795624  12.739380 12.937627
598   3 0.0000  -4.344002  10.170006 18.300671
599   3 0.0000  -6.892381   7.600633 23.663716
600   3 0.0000  -9.440760   5.031259 29.026761
601   3 0.0000   8.536334   2.425612  2.211538
602   3 0.0000   5.987956  -0.143762  7.574582
603   3 0.0000   3.439577  -2.713136 12.937627
604   3 0.0000   0.891198  -5.282510 18.300671
605   3 0.0000  -1.657181  -7.851884 23.663716
606   3 0.0000  -4.205560 -10.421258 29.026761
607   3 0.0000   8.503300   7.576451  2.211538
608   3 0.0000   5.954921   5.007077  7.574582
609   3 0.0000   3.406542   2.437703 12.937627
610   3 0.0000   0.858163  -0.131671 18.300671
611   3 0.0000  -1.690215  -2.701045 23.663716
612   3 0.0000  -4.238594  -5.270419 29.026761
613   3 0.0000   8.470265  12.727290  2.211538
614   3 0.0000   5.921887  10.157916  7.574582
615   3 0.0000   3.373508   7.588542 12.937627
616   3 0.0000   0.825129   5.019168 18.300671
617   3 0.0000  -1.723250   2.449794 23.663716
618   3 0.0000  -4.271629  -0.119580 29.026761
619   3 0.0000   8.437231  17.878128  2.211538
620   3 0.0000   5.888852  15.308754  7.574582
621   3 0.0000   3.340473  12.739380 12.937627
622   3 0.0000   0.792094  10.170006 18.300671
623   3 0.0000  -1.756284   7.600633 23.663716
624   3 0.0000  -4.304663   5.031259 29.026761
625   3 0.0000  13.672431   2.425612  2.211538
626   3 0.0000  11.124052  -0.143762  7.574582
627   3 0.0000   8.575674  -2.713136 12.937627
628   3 0.0000   6.027295  -5.282510 18.300671
629   3 0.0000   3.478916  -7.851884 23.663716
630   3 0.0000   0.930537 -10.421258 29.026761
631   3 0.0000  13.639397   7.576451  2.211538
632   3 0.0000  11.091018   5.007077  7.574582