Generated by pymatgen.io.lammps.data.LammpsData

192  atoms

  3  atom types

0.000000 11.893537  xlo xhi
0.000000 10.683714  ylo yhi
0.000000 20.179974  zlo zhi
-5.226321 -6.667219 -10.683720  xy xz yz

Masses

1  88.90585
2  50.94150
3  15.99940

Atoms

1    1 0.0000 -1.959871  4.006393  1.261248
2    1 0.0000 -3.626675  1.335462  6.306242
3    1 0.0000 -5.293480 -1.335468 11.351235
4    1 0.0000 -6.960285 -4.006398 16.396229
5    1 0.0000 -4.573031  9.348250  1.261248
6    1 0.0000 -6.239836  6.677320  6.306242
7    1 0.0000 -7.906641  4.006390 11.351235
8    1 0.0000 -9.573445  1.335459 16.396229
9    1 0.0000  3.986898  4.006393  1.261248
10   1 0.0000  2.320093  1.335462  6.306242
11   1 0.0000  0.653288 -1.335468 11.351235
12   1 0.0000 -1.013516 -4.006398 16.396229
13   1 0.0000  1.373737  9.348250  1.261248
14   1 0.0000 -0.293068  6.677320  6.306242
15   1 0.0000 -1.959872  4.006390 11.351235
16   1 0.0000 -3.626677  1.335459 16.396229
17   1 0.0000  3.626674 -1.335465  3.783745
18   1 0.0000  1.959869 -4.006395  8.828738
19   1 0.0000  0.293065 -6.677326 13.873732
20   1 0.0000 -1.373740 -9.348256 18.918725
21   1 0.0000  1.013513  4.006392  3.783745
22   1 0.0000 -0.653291  1.335462  8.828738
23   1 0.0000 -2.320096 -1.335468 13.873732
24   1 0.0000 -3.986901 -4.006398 18.918725
25   1 0.0000  9.573442 -1.335465  3.783745
26   1 0.0000  7.906638 -4.006395  8.828738
27   1 0.0000  6.239833 -6.677326 13.873732
28   1 0.0000  4.573028 -9.348256 18.918725
29   1 0.0000  6.960282  4.006392  3.783745
30   1 0.0000  5.293477  1.335462  8.828738
31   1 0.0000  3.626672 -1.335468 13.873732
32   1 0.0000  1.959868 -4.006398 18.918725
33   2 0.0000  2.320094  1.335464  1.261248
34   2 0.0000  0.653289 -1.335466  6.306242
35   2 0.0000 -1.013515 -4.006396 11.351235
36   2 0.0000 -2.680320 -6.677326 16.396229
37   2 0.0000 -0.293067  6.677321  1.261248
38   2 0.0000 -1.959871  4.006391  6.306242
39   2 0.0000 -3.626676  1.335461 11.351235
40   2 0.0000 -5.293481 -1.335469 16.396229
41   2 0.0000  8.266862  1.335464  1.261248
42   2 0.0000  6.600058 -1.335466  6.306242
43   2 0.0000  4.933253 -4.006396 11.351235
44   2 0.0000  3.266448 -6.677326 16.396229
45   2 0.0000  5.653702  6.677321  1.261248
46   2 0.0000  3.986897  4.006391  6.306242
47   2 0.0000  2.320092  1.335461 11.351235
48   2 0.0000  0.653288 -1.335469 16.396229
49   2 0.0000 -0.653291  1.335463  3.783745
50   2 0.0000 -2.320095 -1.335467  8.828738
51   2 0.0000 -3.986900 -4.006397 13.873732
52   2 0.0000 -5.653705 -6.677327 18.918725
53   2 0.0000 -3.266451  6.677320  3.783745
54   2 0.0000 -4.933256  4.006390  8.828738
55   2 0.0000 -6.600061  1.335460 13.873732
56   2 0.0000 -8.266865 -1.335470 18.918725
57   2 0.0000  5.293478  1.335463  3.783745
58   2 0.0000  3.626673 -1.335467  8.828738
59   2 0.0000  1.959868 -4.006397 13.873732
60   2 0.0000  0.293064 -6.677327 18.918725
61   2 0.0000  2.680317  6.677320  3.783745
62   2 0.0000  1.013512  4.006390  8.828738
63   2 0.0000 -0.653292  1.335460 13.873732
64   2 0.0000 -2.320097 -1.335470 18.918725
65   3 0.0000  0.718683  1.774790  4.715082
66   3 0.0000 -0.948121 -0.896140  9.760075
67   3 0.0000 -2.614926 -3.567070 14.805069
68   3 0.0000 -4.281731 -6.238000 19.850062
69   3 0.0000 -1.894478  7.116648  4.715082
70   3 0.0000 -3.561282  4.445717  9.760075
71   3 0.0000 -5.228087  1.774787 14.805069
72   3 0.0000 -6.894891 -0.896143 19.850062
73   3 0.0000  6.665452  1.774790  4.715082
74   3 0.0000  4.998647 -0.896140  9.760075
75   3 0.0000  3.331842 -3.567070 14.805069
76   3 0.0000  1.665038 -6.238000 19.850062
77   3 0.0000  4.052291  7.116648  4.715082
78   3 0.0000  2.385486  4.445717  9.760075
79   3 0.0000  0.718682  1.774787 14.805069
80   3 0.0000 -0.948123 -0.896143 19.850062
81   3 0.0000  2.111852  2.760931  2.192585
82   3 0.0000  0.445048  0.090001  7.237579
83   3 0.0000 -1.221757 -2.580929 12.282572
84   3 0.0000 -2.888562 -5.251860 17.327565
85   3 0.0000 -0.501308  8.102788  2.192585
86   3 0.0000 -2.168113  5.431858  7.237579
87   3 0.0000 -3.834918  2.760928 12.282572
88   3 0.0000 -5.501722  0.089998 17.327565
89   3 0.0000  8.058621  2.760931  2.192585
90   3 0.0000  6.391816  0.090001  7.237579
91   3 0.0000  4.725011 -2.580929 12.282572
92   3 0.0000  3.058207 -5.251860 17.327565
93   3 0.0000  5.445460  8.102788  2.192585
94   3 0.0000  3.778655  5.431858  7.237579
95   3 0.0000  2.111851  2.760928 12.282572
96   3 0.0000  0.445046  0.089998 17.327565
97   3 0.0000  3.692065  1.774797  0.329912
98   3 0.0000  2.025261 -0.896133  5.374905
99   3 0.0000  0.358456 -3.567063 10.419898
100  3 0.0000 -1.308348 -6.237993 15.464892
101  3 0.0000  1.078905  7.116654  0.329912
102  3 0.0000 -0.587900  4.445724  5.374905
103  3 0.0000 -2.254705  1.774794 10.419898
104  3 0.0000 -3.921509 -0.896136 15.464892
105  3 0.0000  9.638834  1.774797  0.329912
106  3 0.0000  7.972029 -0.896133  5.374905
107  3 0.0000  6.305225 -3.567063 10.419898
108  3 0.0000  4.638420 -6.237993 15.464892
109  3 0.0000  7.025673  7.116654  0.329912
110  3 0.0000  5.358869  4.445724  5.374905
111  3 0.0000  3.692064  1.774794 10.419898
112  3 0.0000  2.025259 -0.896136 15.464892
113  3 0.0000 -0.861526  2.760931  2.852408
114  3 0.0000 -2.528331  0.090000  7.897402
115  3 0.0000 -4.195135 -2.580930 12.942395
116  3 0.0000 -5.861940 -5.251860 17.987388
117  3 0.0000 -3.474687  8.102788  2.852408
118  3 0.0000 -5.141491  5.431858  7.897402
119  3 0.0000 -6.808296  2.760928 12.942395
120  3 0.0000 -8.475101  0.089997 17.987388
121  3 0.0000  5.085242  2.760931  2.852408
122  3 0.0000  3.418438  0.090000  7.897402
123  3 0.0000  1.751633 -2.580930 12.942395
124  3 0.0000  0.084829 -5.251860 17.987388
125  3 0.0000  2.472082  8.102788  2.852408
126  3 0.0000  0.805277  5.431858  7.897402
127  3 0.0000 -0.861528  2.760928 12.942395
128  3 0.0000 -2.528332  0.089997 17.987388
129  3 0.0000 -2.025262  0.896130  4.715082
130  3 0.0000 -3.692067 -1.774800  9.760075
131  3 0.0000 -5.358872 -4.445730 14.805069
132  3 0.0000 -7.025676 -7.116660 19.850062
133  3 0.0000 -4.638423  6.237987  4.715082
134  3 0.0000 -6.305228  3.567057  9.760075
135  3 0.0000 -7.972032  0.896127 14.805069
136  3 0.0000 -9.638837 -1.774803 19.850062
137  3 0.0000  3.921506  0.896130  4.715082
138  3 0.0000  2.254702 -1.774800  9.760075
139  3 0.0000  0.587897 -4.445730 14.805069
140  3 0.0000 -1.078908 -7.116660 19.850062
141  3 0.0000  1.308345  6.237987  4.715082
142  3 0.0000 -0.358459  3.567057  9.760075
143  3 0.0000 -2.025264  0.896127 14.805069
144  3 0.0000 -3.692068 -1.774803 19.850062
145  3 0.0000  2.528329 -0.090003  2.192585
146  3 0.0000  0.861525 -2.760933  7.237579
147  3 0.0000 -0.805280 -5.431864 12.282572
148  3 0.0000 -2.472085 -8.102794 17.327565
149  3 0.0000 -0.084832  5.251854  2.192585
150  3 0.0000 -1.751636  2.580924  7.237579
151  3 0.0000 -3.418441 -0.090006 12.282572
152  3 0.0000 -5.085245 -2.760936 17.327565
153  3 0.0000  8.475098 -0.090003  2.192585
154  3 0.0000  6.808293 -2.760933  7.237579
155  3 0.0000  5.141488 -5.431864 12.282572
156  3 0.0000  3.474684 -8.102794 17.327565
157  3 0.0000  5.861937  5.251854  2.192585
158  3 0.0000  4.195132  2.580924  7.237579
159  3 0.0000  2.528328 -0.090006 12.282572
160  3 0.0000  0.861523 -2.760936 17.327565
161  3 0.0000  0.948120  0.896137  0.329912
162  3 0.0000 -0.718685 -1.774793  5.374905
163  3 0.0000 -2.385489 -4.445723 10.419898
164  3 0.0000 -4.052294 -7.116653 15.464892
165  3 0.0000 -1.665041  6.237994  0.329912
166  3 0.0000 -3.331845  3.567064  5.374905
167  3 0.0000 -4.998650  0.896134 10.419898
168  3 0.0000 -6.665455 -1.774796 15.464892
169  3 0.0000  6.894888  0.896137  0.329912
170  3 0.0000  5.228084 -1.774793  5.374905
171  3 0.0000  3.561279 -4.445723 10.419898
172  3 0.0000  1.894475 -7.116653 15.464892
173  3 0.0000  4.281728  6.237994  0.329912
174  3 0.0000  2.614923  3.567064  5.374905
175  3 0.0000  0.948118  0.896134 10.419898
176  3 0.0000 -0.718686 -1.774796 15.464892
177  3 0.0000 -0.445049 -0.090004  2.852408
178  3 0.0000 -2.111854 -2.760934  7.897402
179  3 0.0000 -3.778658 -5.431864 12.942395
180  3 0.0000 -5.445463 -8.102794 17.987388
181  3 0.0000 -3.058210  5.251854  2.852408
182  3 0.0000 -4.725014  2.580924  7.897402
183  3 0.0000 -6.391819 -0.090007 12.942395
184  3 0.0000 -8.058624 -2.760937 17.987388
185  3 0.0000  5.501719 -0.090004  2.852408
186  3 0.0000  3.834915 -2.760934  7.897402
187  3 0.0000  2.168110 -5.431864 12.942395
188  3 0.0000  0.501305 -8.102794 17.987388
189  3 0.0000  2.888559  5.251854  2.852408
190  3 0.0000  1.221754  2.580924  7.897402
191  3 0.0000 -0.445051 -0.090007 12.942395
192  3 0.0000 -2.111855 -2.760937 17.987388

