Generated by pymatgen.io.lammps.data.LammpsData

1152  atoms

   3  atom types

0.000000 23.787074  xlo xhi
0.000000 21.367429  ylo yhi
0.000000 30.269960  zlo zhi
-10.452643 -10.000828 -16.025580  xy xz yz

Masses

1  88.90585
2  50.94150
3  15.99940

Atoms

1     1 0.0000  -1.959871   4.006393  1.261248
2     1 0.0000  -3.626675   1.335462  6.306242
3     1 0.0000  -5.293480  -1.335468 11.351235
4     1 0.0000  -6.960285  -4.006398 16.396229
5     1 0.0000  -8.627089  -6.677328 21.441222
6     1 0.0000 -10.293894  -9.348258 26.486215
7     1 0.0000  -4.573031   9.348250  1.261248
8     1 0.0000  -6.239836   6.677320  6.306242
9     1 0.0000  -7.906641   4.006390 11.351235
10    1 0.0000  -9.573445   1.335459 16.396229
11    1 0.0000 -11.240250  -1.335471 21.441222
12    1 0.0000 -12.907055  -4.006401 26.486215
13    1 0.0000  -7.186192  14.690107  1.261248
14    1 0.0000  -8.852997  12.019177  6.306242
15    1 0.0000 -10.519801   9.348247 11.351235
16    1 0.0000 -12.186606   6.677317 16.396229
17    1 0.0000 -13.853411   4.006387 21.441222
18    1 0.0000 -15.520215   1.335457 26.486215
19    1 0.0000  -9.799353  20.031964  1.261248
20    1 0.0000 -11.466157  17.361034  6.306242
21    1 0.0000 -13.132962  14.690104 11.351235
22    1 0.0000 -14.799767  12.019174 16.396229
23    1 0.0000 -16.466571   9.348244 21.441222
24    1 0.0000 -18.133376   6.677314 26.486215
25    1 0.0000   3.986898   4.006393  1.261248
26    1 0.0000   2.320093   1.335462  6.306242
27    1 0.0000   0.653288  -1.335468 11.351235
28    1 0.0000  -1.013516  -4.006398 16.396229
29    1 0.0000  -2.680321  -6.677328 21.441222
30    1 0.0000  -4.347125  -9.348258 26.486215
31    1 0.0000   1.373737   9.348250  1.261248
32    1 0.0000  -0.293068   6.677320  6.306242
33    1 0.0000  -1.959872   4.006390 11.351235
34    1 0.0000  -3.626677   1.335459 16.396229
35    1 0.0000  -5.293481  -1.335471 21.441222
36    1 0.0000  -6.960286  -4.006401 26.486215
37    1 0.0000  -1.239424  14.690107  1.261248
38    1 0.0000  -2.906228  12.019177  6.306242
39    1 0.0000  -4.573033   9.348247 11.351235
40    1 0.0000  -6.239838   6.677317 16.396229
41    1 0.0000  -7.906642   4.006387 21.441222
42    1 0.0000  -9.573447   1.335457 26.486215
43    1 0.0000  -3.852584  20.031964  1.261248
44    1 0.0000  -5.519389  17.361034  6.306242
45    1 0.0000  -7.186194  14.690104 11.351235
46    1 0.0000  -8.852998  12.019174 16.396229
47    1 0.0000 -10.519803   9.348244 21.441222
48    1 0.0000 -12.186607   6.677314 26.486215
49    1 0.0000   9.933666   4.006393  1.261248
50    1 0.0000   8.266862   1.335462  6.306242
51    1 0.0000   6.600057  -1.335468 11.351235
52    1 0.0000   4.933252  -4.006398 16.396229
53    1 0.0000   3.266448  -6.677328 21.441222
54    1 0.0000   1.599643  -9.348258 26.486215
55    1 0.0000   7.320506   9.348250  1.261248
56    1 0.0000   5.653701   6.677320  6.306242
57    1 0.0000   3.986896   4.006390 11.351235
58    1 0.0000   2.320092   1.335459 16.396229
59    1 0.0000   0.653287  -1.335471 21.441222
60    1 0.0000  -1.013518  -4.006401 26.486215
61    1 0.0000   4.707345  14.690107  1.261248
62    1 0.0000   3.040540  12.019177  6.306242
63    1 0.0000   1.373736   9.348247 11.351235
64    1 0.0000  -0.293069   6.677317 16.396229
65    1 0.0000  -1.959874   4.006387 21.441222
66    1 0.0000  -3.626678   1.335457 26.486215
67    1 0.0000   2.094184  20.031964  1.261248
68    1 0.0000   0.427380  17.361034  6.306242
69    1 0.0000  -1.239425  14.690104 11.351235
70    1 0.0000  -2.906230  12.019174 16.396229
71    1 0.0000  -4.573034   9.348244 21.441222
72    1 0.0000  -6.239839   6.677314 26.486215
73    1 0.0000  15.880435   4.006393  1.261248
74    1 0.0000  14.213630   1.335462  6.306242
75    1 0.0000  12.546825  -1.335468 11.351235
76    1 0.0000  10.880021  -4.006398 16.396229
77    1 0.0000   9.213216  -6.677328 21.441222
78    1 0.0000   7.546411  -9.348258 26.486215
79    1 0.0000  13.267274   9.348250  1.261248
80    1 0.0000  11.600469   6.677320  6.306242
81    1 0.0000   9.933665   4.006390 11.351235
82    1 0.0000   8.266860   1.335459 16.396229
83    1 0.0000   6.600055  -1.335471 21.441222
84    1 0.0000   4.933251  -4.006401 26.486215
85    1 0.0000  10.654113  14.690107  1.261248
86    1 0.0000   8.987309  12.019177  6.306242
87    1 0.0000   7.320504   9.348247 11.351235
88    1 0.0000   5.653699   6.677317 16.396229
89    1 0.0000   3.986895   4.006387 21.441222
90    1 0.0000   2.320090   1.335457 26.486215
91    1 0.0000   8.040953  20.031964  1.261248
92    1 0.0000   6.374148  17.361034  6.306242
93    1 0.0000   4.707343  14.690104 11.351235
94    1 0.0000   3.040539  12.019174 16.396229
95    1 0.0000   1.373734   9.348244 21.441222
96    1 0.0000  -0.293071   6.677314 26.486215
97    1 0.0000   3.626674  -1.335465  3.783745
98    1 0.0000   1.959869  -4.006395  8.828738
99    1 0.0000   0.293065  -6.677326 13.873732
100   1 0.0000  -1.373740  -9.348256 18.918725
101   1 0.0000  -3.040545 -12.019186 23.963719
102   1 0.0000  -4.707349 -14.690116 29.008712
103   1 0.0000   1.013513   4.006392  3.783745
104   1 0.0000  -0.653291   1.335462  8.828738
105   1 0.0000  -2.320096  -1.335468 13.873732
106   1 0.0000  -3.986901  -4.006398 18.918725
107   1 0.0000  -5.653705  -6.677329 23.963719
108   1 0.0000  -7.320510  -9.348259 29.008712
109   1 0.0000  -1.599648   9.348249  3.783745
110   1 0.0000  -3.266452   6.677319  8.828738
111   1 0.0000  -4.933257   4.006389 13.873732
112   1 0.0000  -6.600061   1.335459 18.918725
113   1 0.0000  -8.266866  -1.335471 23.963719
114   1 0.0000  -9.933671  -4.006401 29.008712
115   1 0.0000  -4.212808  14.690106  3.783745
116   1 0.0000  -5.879613  12.019176  8.828738
117   1 0.0000  -7.546417   9.348246 13.873732
118   1 0.0000  -9.213222   6.677316 18.918725
119   1 0.0000 -10.880027   4.006386 23.963719
120   1 0.0000 -12.546831   1.335456 29.008712
121   1 0.0000   9.573442  -1.335465  3.783745
122   1 0.0000   7.906638  -4.006395  8.828738
123   1 0.0000   6.239833  -6.677326 13.873732
124   1 0.0000   4.573028  -9.348256 18.918725
125   1 0.0000   2.906224 -12.019186 23.963719
126   1 0.0000   1.239419 -14.690116 29.008712
127   1 0.0000   6.960282   4.006392  3.783745
128   1 0.0000   5.293477   1.335462  8.828738
129   1 0.0000   3.626672  -1.335468 13.873732
130   1 0.0000   1.959868  -4.006398 18.918725
131   1 0.0000   0.293063  -6.677329 23.963719
132   1 0.0000  -1.373742  -9.348259 29.008712
133   1 0.0000   4.347121   9.348249  3.783745
134   1 0.0000   2.680316   6.677319  8.828738
135   1 0.0000   1.013512   4.006389 13.873732
136   1 0.0000  -0.653293   1.335459 18.918725
137   1 0.0000  -2.320098  -1.335471 23.963719
138   1 0.0000  -3.986902  -4.006401 29.008712
139   1 0.0000   1.733960  14.690106  3.783745
140   1 0.0000   0.067156  12.019176  8.828738
141   1 0.0000  -1.599649   9.348246 13.873732
142   1 0.0000  -3.266454   6.677316 18.918725
143   1 0.0000  -4.933258   4.006386 23.963719
144   1 0.0000  -6.600063   1.335456 29.008712
145   1 0.0000  15.520211  -1.335465  3.783745
146   1 0.0000  13.853406  -4.006395  8.828738
147   1 0.0000  12.186601  -6.677326 13.873732
148   1 0.0000  10.519797  -9.348256 18.918725
149   1 0.0000   8.852992 -12.019186 23.963719
150   1 0.0000   7.186188 -14.690116 29.008712
151   1 0.0000  12.907050   4.006392  3.783745
152   1 0.0000  11.240245   1.335462  8.828738
153   1 0.0000   9.573441  -1.335468 13.873732
154   1 0.0000   7.906636  -4.006398 18.918725
155   1 0.0000   6.239832  -6.677329 23.963719
156   1 0.0000   4.573027  -9.348259 29.008712
157   1 0.0000  10.293889   9.348249  3.783745
158   1 0.0000   8.627085   6.677319  8.828738
159   1 0.0000   6.960280   4.006389 13.873732
160   1 0.0000   5.293475   1.335459 18.918725
161   1 0.0000   3.626671  -1.335471 23.963719
162   1 0.0000   1.959866  -4.006401 29.008712
163   1 0.0000   7.680729  14.690106  3.783745
164   1 0.0000   6.013924  12.019176  8.828738
165   1 0.0000   4.347119   9.348246 13.873732
166   1 0.0000   2.680315   6.677316 18.918725
167   1 0.0000   1.013510   4.006386 23.963719
168   1 0.0000  -0.653294   1.335456 29.008712
169   1 0.0000  21.466979  -1.335465  3.783745
170   1 0.0000  19.800175  -4.006395  8.828738
171   1 0.0000  18.133370  -6.677326 13.873732
172   1 0.0000  16.466565  -9.348256 18.918725
173   1 0.0000  14.799761 -12.019186 23.963719
174   1 0.0000  13.132956 -14.690116 29.008712
175   1 0.0000  18.853819   4.006392  3.783745
176   1 0.0000  17.187014   1.335462  8.828738
177   1 0.0000  15.520209  -1.335468 13.873732
178   1 0.0000  13.853405  -4.006398 18.918725
179   1 0.0000  12.186600  -6.677329 23.963719
180   1 0.0000  10.519795  -9.348259 29.008712
181   1 0.0000  16.240658   9.348249  3.783745
182   1 0.0000  14.573853   6.677319  8.828738
183   1 0.0000  12.907049   4.006389 13.873732
184   1 0.0000  11.240244   1.335459 18.918725
185   1 0.0000   9.573439  -1.335471 23.963719
186   1 0.0000   7.906635  -4.006401 29.008712
187   1 0.0000  13.627497  14.690106  3.783745
188   1 0.0000  11.960693  12.019176  8.828738
189   1 0.0000  10.293888   9.348246 13.873732
190   1 0.0000   8.627083   6.677316 18.918725
191   1 0.0000   6.960279   4.006386 23.963719
192   1 0.0000   5.293474   1.335456 29.008712
193   2 0.0000   2.320094   1.335464  1.261248
194   2 0.0000   0.653289  -1.335466  6.306242
195   2 0.0000  -1.013515  -4.006396 11.351235
196   2 0.0000  -2.680320  -6.677326 16.396229
197   2 0.0000  -4.347125  -9.348256 21.441222
198   2 0.0000  -6.013929 -12.019186 26.486215
199   2 0.0000  -0.293067   6.677321  1.261248
200   2 0.0000  -1.959871   4.006391  6.306242
201   2 0.0000  -3.626676   1.335461 11.351235
202   2 0.0000  -5.293481  -1.335469 16.396229
203   2 0.0000  -6.960285  -4.006399 21.441222
204   2 0.0000  -8.627090  -6.677329 26.486215
205   2 0.0000  -2.906228  12.019178  1.261248
206   2 0.0000  -4.573032   9.348248  6.306242
207   2 0.0000  -6.239837   6.677318 11.351235
208   2 0.0000  -7.906641   4.006388 16.396229
209   2 0.0000  -9.573446   1.335458 21.441222
210   2 0.0000 -11.240251  -1.335472 26.486215
211   2 0.0000  -5.519388  17.361036  1.261248
212   2 0.0000  -7.186193  14.690105  6.306242
213   2 0.0000  -8.852997  12.019175 11.351235
214   2 0.0000 -10.519802   9.348245 16.396229
215   2 0.0000 -12.186607   6.677315 21.441222
216   2 0.0000 -13.853411   4.006385 26.486215
217   2 0.0000   8.266862   1.335464  1.261248
218   2 0.0000   6.600058  -1.335466  6.306242
219   2 0.0000   4.933253  -4.006396 11.351235
220   2 0.0000   3.266448  -6.677326 16.396229
221   2 0.0000   1.599644  -9.348256 21.441222
222   2 0.0000  -0.067161 -12.019186 26.486215
223   2 0.0000   5.653702   6.677321  1.261248
224   2 0.0000   3.986897   4.006391  6.306242
225   2 0.0000   2.320092   1.335461 11.351235
226   2 0.0000   0.653288  -1.335469 16.396229
227   2 0.0000  -1.013517  -4.006399 21.441222
228   2 0.0000  -2.680322  -6.677329 26.486215
229   2 0.0000   3.040541  12.019178  1.261248
230   2 0.0000   1.373736   9.348248  6.306242
231   2 0.0000  -0.293068   6.677318 11.351235
232   2 0.0000  -1.959873   4.006388 16.396229
233   2 0.0000  -3.626678   1.335458 21.441222
234   2 0.0000  -5.293482  -1.335472 26.486215
235   2 0.0000   0.427380  17.361036  1.261248
236   2 0.0000  -1.239424  14.690105  6.306242
237   2 0.0000  -2.906229  12.019175 11.351235
238   2 0.0000  -4.573034   9.348245 16.396229
239   2 0.0000  -6.239838   6.677315 21.441222
240   2 0.0000  -7.906643   4.006385 26.486215
241   2 0.0000  14.213631   1.335464  1.261248
242   2 0.0000  12.546826  -1.335466  6.306242
243   2 0.0000  10.880022  -4.006396 11.351235
244   2 0.0000   9.213217  -6.677326 16.396229
245   2 0.0000   7.546412  -9.348256 21.441222
246   2 0.0000   5.879608 -12.019186 26.486215
247   2 0.0000  11.600470   6.677321  1.261248
248   2 0.0000   9.933665   4.006391  6.306242
249   2 0.0000   8.266861   1.335461 11.351235
250   2 0.0000   6.600056  -1.335469 16.396229
251   2 0.0000   4.933252  -4.006399 21.441222
252   2 0.0000   3.266447  -6.677329 26.486215
253   2 0.0000   8.987309  12.019178  1.261248
254   2 0.0000   7.320505   9.348248  6.306242
255   2 0.0000   5.653700   6.677318 11.351235
256   2 0.0000   3.986896   4.006388 16.396229
257   2 0.0000   2.320091   1.335458 21.441222
258   2 0.0000   0.653286  -1.335472 26.486215
259   2 0.0000   6.374149  17.361036  1.261248
260   2 0.0000   4.707344  14.690105  6.306242
261   2 0.0000   3.040539  12.019175 11.351235
262   2 0.0000   1.373735   9.348245 16.396229
263   2 0.0000  -0.293070   6.677315 21.441222
264   2 0.0000  -1.959874   4.006385 26.486215
265   2 0.0000  20.160399   1.335464  1.261248
266   2 0.0000  18.493595  -1.335466  6.306242
267   2 0.0000  16.826790  -4.006396 11.351235
268   2 0.0000  15.159985  -6.677326 16.396229
269   2 0.0000  13.493181  -9.348256 21.441222
270   2 0.0000  11.826376 -12.019186 26.486215
271   2 0.0000  17.547239   6.677321  1.261248
272   2 0.0000  15.880434   4.006391  6.306242
273   2 0.0000  14.213629   1.335461 11.351235
274   2 0.0000  12.546825  -1.335469 16.396229
275   2 0.0000  10.880020  -4.006399 21.441222
276   2 0.0000   9.213215  -6.677329 26.486215
277   2 0.0000  14.934078  12.019178  1.261248
278   2 0.0000  13.267273   9.348248  6.306242
279   2 0.0000  11.600469   6.677318 11.351235
280   2 0.0000   9.933664   4.006388 16.396229
281   2 0.0000   8.266859   1.335458 21.441222
282   2 0.0000   6.600055  -1.335472 26.486215
283   2 0.0000  12.320917  17.361036  1.261248
284   2 0.0000  10.654113  14.690105  6.306242
285   2 0.0000   8.987308  12.019175 11.351235
286   2 0.0000   7.320503   9.348245 16.396229
287   2 0.0000   5.653699   6.677315 21.441222
288   2 0.0000   3.986894   4.006385 26.486215
289   2 0.0000  -0.653291   1.335463  3.783745
290   2 0.0000  -2.320095  -1.335467  8.828738
291   2 0.0000  -3.986900  -4.006397 13.873732
292   2 0.0000  -5.653705  -6.677327 18.918725
293   2 0.0000  -7.320509  -9.348257 23.963719
294   2 0.0000  -8.987314 -12.019187 29.008712
295   2 0.0000  -3.266451   6.677320  3.783745
296   2 0.0000  -4.933256   4.006390  8.828738
297   2 0.0000  -6.600061   1.335460 13.873732
298   2 0.0000  -8.266865  -1.335470 18.918725
299   2 0.0000  -9.933670  -4.006400 23.963719
300   2 0.0000 -11.600475  -6.677330 29.008712
301   2 0.0000  -5.879612  12.019178  3.783745
302   2 0.0000  -7.546417   9.348248  8.828738
303   2 0.0000  -9.213221   6.677317 13.873732
304   2 0.0000 -10.880026   4.006387 18.918725
305   2 0.0000 -12.546831   1.335457 23.963719
306   2 0.0000 -14.213635  -1.335473 29.008712
307   2 0.0000  -8.492773  17.361035  3.783745
308   2 0.0000 -10.159577  14.690105  8.828738
309   2 0.0000 -11.826382  12.019175 13.873732
310   2 0.0000 -13.493187   9.348245 18.918725
311   2 0.0000 -15.159991   6.677314 23.963719
312   2 0.0000 -16.826796   4.006384 29.008712
313   2 0.0000   5.293478   1.335463  3.783745
314   2 0.0000   3.626673  -1.335467  8.828738
315   2 0.0000   1.959868  -4.006397 13.873732
316   2 0.0000   0.293064  -6.677327 18.918725
317   2 0.0000  -1.373741  -9.348257 23.963719
318   2 0.0000  -3.040545 -12.019187 29.008712
319   2 0.0000   2.680317   6.677320  3.783745
320   2 0.0000   1.013512   4.006390  8.828738
321   2 0.0000  -0.653292   1.335460 13.873732
322   2 0.0000  -2.320097  -1.335470 18.918725
323   2 0.0000  -3.986902  -4.006400 23.963719
324   2 0.0000  -5.653706  -6.677330 29.008712
325   2 0.0000   0.067156  12.019178  3.783745
326   2 0.0000  -1.599648   9.348248  8.828738
327   2 0.0000  -3.266453   6.677317 13.873732
328   2 0.0000  -4.933258   4.006387 18.918725
329   2 0.0000  -6.600062   1.335457 23.963719
330   2 0.0000  -8.266867  -1.335473 29.008712
331   2 0.0000  -2.546004  17.361035  3.783745
332   2 0.0000  -4.212809  14.690105  8.828738
333   2 0.0000  -5.879614  12.019175 13.873732
334   2 0.0000  -7.546418   9.348245 18.918725
335   2 0.0000  -9.213223   6.677314 23.963719
336   2 0.0000 -10.880028   4.006384 29.008712
337   2 0.0000  11.240246   1.335463  3.783745
338   2 0.0000   9.573442  -1.335467  8.828738
339   2 0.0000   7.906637  -4.006397 13.873732
340   2 0.0000   6.239832  -6.677327 18.918725
341   2 0.0000   4.573028  -9.348257 23.963719
342   2 0.0000   2.906223 -12.019187 29.008712
343   2 0.0000   8.627085   6.677320  3.783745
344   2 0.0000   6.960281   4.006390  8.828738
345   2 0.0000   5.293476   1.335460 13.873732
346   2 0.0000   3.626672  -1.335470 18.918725
347   2 0.0000   1.959867  -4.006400 23.963719
348   2 0.0000   0.293062  -6.677330 29.008712
349   2 0.0000   6.013925  12.019178  3.783745
350   2 0.0000   4.347120   9.348248  8.828738
351   2 0.0000   2.680316   6.677317 13.873732
352   2 0.0000   1.013511   4.006387 18.918725
353   2 0.0000  -0.653294   1.335457 23.963719
354   2 0.0000  -2.320098  -1.335473 29.008712
355   2 0.0000   3.400764  17.361035  3.783745
356   2 0.0000   1.733959  14.690105  8.828738
357   2 0.0000   0.067155  12.019175 13.873732
358   2 0.0000  -1.599650   9.348245 18.918725
359   2 0.0000  -3.266454   6.677314 23.963719
360   2 0.0000  -4.933259   4.006384 29.008712
361   2 0.0000  17.187015   1.335463  3.783745
362   2 0.0000  15.520210  -1.335467  8.828738
363   2 0.0000  13.853405  -4.006397 13.873732
364   2 0.0000  12.186601  -6.677327 18.918725
365   2 0.0000  10.519796  -9.348257 23.963719
366   2 0.0000   8.852991 -12.019187 29.008712
367   2 0.0000  14.573854   6.677320  3.783745
368   2 0.0000  12.907049   4.006390  8.828738
369   2 0.0000  11.240245   1.335460 13.873732
370   2 0.0000   9.573440  -1.335470 18.918725
371   2 0.0000   7.906635  -4.006400 23.963719
372   2 0.0000   6.239831  -6.677330 29.008712
373   2 0.0000  11.960693  12.019178  3.783745
374   2 0.0000  10.293889   9.348248  8.828738
375   2 0.0000   8.627084   6.677317 13.873732
376   2 0.0000   6.960279   4.006387 18.918725
377   2 0.0000   5.293475   1.335457 23.963719
378   2 0.0000   3.626670  -1.335473 29.008712
379   2 0.0000   9.347533  17.361035  3.783745
380   2 0.0000   7.680728  14.690105  8.828738
381   2 0.0000   6.013923  12.019175 13.873732
382   2 0.0000   4.347119   9.348245 18.918725
383   2 0.0000   2.680314   6.677314 23.963719
384   2 0.0000   1.013509   4.006384 29.008712
385   3 0.0000   0.718683   1.774790  4.715082
386   3 0.0000  -0.948121  -0.896140  9.760075
387   3 0.0000  -2.614926  -3.567070 14.805069
388   3 0.0000  -4.281731  -6.238000 19.850062
389   3 0.0000  -5.948535  -8.908930 24.895055
390   3 0.0000  -7.615340 -11.579860 29.940049
391   3 0.0000  -1.894478   7.116648  4.715082
392   3 0.0000  -3.561282   4.445717  9.760075
393   3 0.0000  -5.228087   1.774787 14.805069
394   3 0.0000  -6.894891  -0.896143 19.850062
395   3 0.0000  -8.561696  -3.567073 24.895055
396   3 0.0000 -10.228501  -6.238003 29.940049
397   3 0.0000  -4.507638  12.458505  4.715082
398   3 0.0000  -6.174443   9.787575  9.760075
399   3 0.0000  -7.841247   7.116645 14.805069
400   3 0.0000  -9.508052   4.445714 19.850062
401   3 0.0000 -11.174857   1.774784 24.895055
402   3 0.0000 -12.841661  -0.896146 29.940049
403   3 0.0000  -7.120799  17.800362  4.715082
404   3 0.0000  -8.787604  15.129432  9.760075
405   3 0.0000 -10.454408  12.458502 14.805069
406   3 0.0000 -12.121213   9.787572 19.850062
407   3 0.0000 -13.788017   7.116642 24.895055
408   3 0.0000 -15.454822   4.445712 29.940049
409   3 0.0000   6.665452   1.774790  4.715082
410   3 0.0000   4.998647  -0.896140  9.760075
411   3 0.0000   3.331842  -3.567070 14.805069
412   3 0.0000   1.665038  -6.238000 19.850062
413   3 0.0000  -0.001767  -8.908930 24.895055
414   3 0.0000  -1.668572 -11.579860 29.940049
415   3 0.0000   4.052291   7.116648  4.715082
416   3 0.0000   2.385486   4.445717  9.760075
417   3 0.0000   0.718682   1.774787 14.805069
418   3 0.0000  -0.948123  -0.896143 19.850062
419   3 0.0000  -2.614928  -3.567073 24.895055
420   3 0.0000  -4.281732  -6.238003 29.940049
421   3 0.0000   1.439130  12.458505  4.715082
422   3 0.0000  -0.227674   9.787575  9.760075
423   3 0.0000  -1.894479   7.116645 14.805069
424   3 0.0000  -3.561284   4.445714 19.850062
425   3 0.0000  -5.228088   1.774784 24.895055
426   3 0.0000  -6.894893  -0.896146 29.940049
427   3 0.0000  -1.174030  17.800362  4.715082
428   3 0.0000  -2.840835  15.129432  9.760075
429   3 0.0000  -4.507640  12.458502 14.805069
430   3 0.0000  -6.174444   9.787572 19.850062
431   3 0.0000  -7.841249   7.116642 24.895055
432   3 0.0000  -9.508054   4.445712 29.940049
433   3 0.0000  12.612220   1.774790  4.715082
434   3 0.0000  10.945415  -0.896140  9.760075
435   3 0.0000   9.278611  -3.567070 14.805069
436   3 0.0000   7.611806  -6.238000 19.850062
437   3 0.0000   5.945002  -8.908930 24.895055
438   3 0.0000   4.278197 -11.579860 29.940049
439   3 0.0000   9.999059   7.116648  4.715082
440   3 0.0000   8.332255   4.445717  9.760075
441   3 0.0000   6.665450   1.774787 14.805069
442   3 0.0000   4.998645  -0.896143 19.850062
443   3 0.0000   3.331841  -3.567073 24.895055
444   3 0.0000   1.665036  -6.238003 29.940049
445   3 0.0000   7.385899  12.458505  4.715082
446   3 0.0000   5.719094   9.787575  9.760075
447   3 0.0000   4.052289   7.116645 14.805069
448   3 0.0000   2.385485   4.445714 19.850062
449   3 0.0000   0.718680   1.774784 24.895055
450   3 0.0000  -0.948124  -0.896146 29.940049
451   3 0.0000   4.772738  17.800362  4.715082
452   3 0.0000   3.105933  15.129432  9.760075
453   3 0.0000   1.439129  12.458502 14.805069
454   3 0.0000  -0.227676   9.787572 19.850062
455   3 0.0000  -1.894481   7.116642 24.895055
456   3 0.0000  -3.561285   4.445712 29.940049
457   3 0.0000  18.558989   1.774790  4.715082
458   3 0.0000  16.892184  -0.896140  9.760075
459   3 0.0000  15.225379  -3.567070 14.805069
460   3 0.0000  13.558575  -6.238000 19.850062
461   3 0.0000  11.891770  -8.908930 24.895055
462   3 0.0000  10.224965 -11.579860 29.940049
463   3 0.0000  15.945828   7.116648  4.715082
464   3 0.0000  14.279023   4.445717  9.760075
465   3 0.0000  12.612219   1.774787 14.805069
466   3 0.0000  10.945414  -0.896143 19.850062
467   3 0.0000   9.278609  -3.567073 24.895055
468   3 0.0000   7.611805  -6.238003 29.940049
469   3 0.0000  13.332667  12.458505  4.715082
470   3 0.0000  11.665863   9.787575  9.760075
471   3 0.0000   9.999058   7.116645 14.805069
472   3 0.0000   8.332253   4.445714 19.850062
473   3 0.0000   6.665449   1.774784 24.895055
474   3 0.0000   4.998644  -0.896146 29.940049
475   3 0.0000  10.719506  17.800362  4.715082
476   3 0.0000   9.052702  15.129432  9.760075
477   3 0.0000   7.385897  12.458502 14.805069
478   3 0.0000   5.719093   9.787572 19.850062
479   3 0.0000   4.052288   7.116642 24.895055
480   3 0.0000   2.385483   4.445712 29.940049
481   3 0.0000   2.111852   2.760931  2.192585
482   3 0.0000   0.445048   0.090001  7.237579
483   3 0.0000  -1.221757  -2.580929 12.282572
484   3 0.0000  -2.888562  -5.251860 17.327565
485   3 0.0000  -4.555366  -7.922790 22.372559
486   3 0.0000  -6.222171 -10.593720 27.417552
487   3 0.0000  -0.501308   8.102788  2.192585
488   3 0.0000  -2.168113   5.431858  7.237579
489   3 0.0000  -3.834918   2.760928 12.282572
490   3 0.0000  -5.501722   0.089998 17.327565
491   3 0.0000  -7.168527  -2.580932 22.372559
492   3 0.0000  -8.835332  -5.251862 27.417552
493   3 0.0000  -3.114469  13.444645  2.192585
494   3 0.0000  -4.781274  10.773715  7.237579
495   3 0.0000  -6.448078   8.102785 12.282572
496   3 0.0000  -8.114883   5.431855 17.327565
497   3 0.0000  -9.781688   2.760925 22.372559
498   3 0.0000 -11.448492   0.089995 27.417552
499   3 0.0000  -5.727630  18.786502  2.192585
500   3 0.0000  -7.394434  16.115572  7.237579
501   3 0.0000  -9.061239  13.444642 12.282572
502   3 0.0000 -10.728044  10.773712 17.327565
503   3 0.0000 -12.394848   8.102782 22.372559
504   3 0.0000 -14.061653   5.431852 27.417552
505   3 0.0000   8.058621   2.760931  2.192585
506   3 0.0000   6.391816   0.090001  7.237579
507   3 0.0000   4.725011  -2.580929 12.282572
508   3 0.0000   3.058207  -5.251860 17.327565
509   3 0.0000   1.391402  -7.922790 22.372559
510   3 0.0000  -0.275402 -10.593720 27.417552
511   3 0.0000   5.445460   8.102788  2.192585
512   3 0.0000   3.778655   5.431858  7.237579
513   3 0.0000   2.111851   2.760928 12.282572
514   3 0.0000   0.445046   0.089998 17.327565
515   3 0.0000  -1.221758  -2.580932 22.372559
516   3 0.0000  -2.888563  -5.251862 27.417552
517   3 0.0000   2.832299  13.444645  2.192585
518   3 0.0000   1.165495  10.773715  7.237579
519   3 0.0000  -0.501310   8.102785 12.282572
520   3 0.0000  -2.168115   5.431855 17.327565
521   3 0.0000  -3.834919   2.760925 22.372559
522   3 0.0000  -5.501724   0.089995 27.417552
523   3 0.0000   0.219139  18.786502  2.192585
524   3 0.0000  -1.447666  16.115572  7.237579
525   3 0.0000  -3.114471  13.444642 12.282572
526   3 0.0000  -4.781275  10.773712 17.327565
527   3 0.0000  -6.448080   8.102782 22.372559
528   3 0.0000  -8.114884   5.431852 27.417552
529   3 0.0000  14.005389   2.760931  2.192585
530   3 0.0000  12.338585   0.090001  7.237579
531   3 0.0000  10.671780  -2.580929 12.282572
532   3 0.0000   9.004975  -5.251860 17.327565
533   3 0.0000   7.338171  -7.922790 22.372559
534   3 0.0000   5.671366 -10.593720 27.417552
535   3 0.0000  11.392229   8.102788  2.192585
536   3 0.0000   9.725424   5.431858  7.237579
537   3 0.0000   8.058619   2.760928 12.282572
538   3 0.0000   6.391815   0.089998 17.327565
539   3 0.0000   4.725010  -2.580932 22.372559
540   3 0.0000   3.058205  -5.251862 27.417552
541   3 0.0000   8.779068  13.444645  2.192585
542   3 0.0000   7.112263  10.773715  7.237579
543   3 0.0000   5.445459   8.102785 12.282572
544   3 0.0000   3.778654   5.431855 17.327565
545   3 0.0000   2.111849   2.760925 22.372559
546   3 0.0000   0.445045   0.089995 27.417552
547   3 0.0000   6.165907  18.786502  2.192585
548   3 0.0000   4.499103  16.115572  7.237579
549   3 0.0000   2.832298  13.444642 12.282572
550   3 0.0000   1.165493  10.773712 17.327565
551   3 0.0000  -0.501311   8.102782 22.372559
552   3 0.0000  -2.168116   5.431852 27.417552
553   3 0.0000  19.952158   2.760931  2.192585
554   3 0.0000  18.285353   0.090001  7.237579
555   3 0.0000  16.618548  -2.580929 12.282572
556   3 0.0000  14.951744  -5.251860 17.327565
557   3 0.0000  13.284939  -7.922790 22.372559
558   3 0.0000  11.618134 -10.593720 27.417552
559   3 0.0000  17.338997   8.102788  2.192585
560   3 0.0000  15.672192   5.431858  7.237579
561   3 0.0000  14.005388   2.760928 12.282572
562   3 0.0000  12.338583   0.089998 17.327565
563   3 0.0000  10.671778  -2.580932 22.372559
564   3 0.0000   9.004974  -5.251862 27.417552
565   3 0.0000  14.725836  13.444645  2.192585
566   3 0.0000  13.059032  10.773715  7.237579
567   3 0.0000  11.392227   8.102785 12.282572
568   3 0.0000   9.725422   5.431855 17.327565
569   3 0.0000   8.058618   2.760925 22.372559
570   3 0.0000   6.391813   0.089995 27.417552
571   3 0.0000  12.112676  18.786502  2.192585
572   3 0.0000  10.445871  16.115572  7.237579
573   3 0.0000   8.779066  13.444642 12.282572
574   3 0.0000   7.112262  10.773712 17.327565
575   3 0.0000   5.445457   8.102782 22.372559
576   3 0.0000   3.778652   5.431852 27.417552
577   3 0.0000   3.692065   1.774797  0.329912
578   3 0.0000   2.025261  -0.896133  5.374905
579   3 0.0000   0.358456  -3.567063 10.419898
580   3 0.0000  -1.308348  -6.237993 15.464892
581   3 0.0000  -2.975153  -8.908923 20.509885
582   3 0.0000  -4.641958 -11.579853 25.554879
583   3 0.0000   1.078905   7.116654  0.329912
584   3 0.0000  -0.587900   4.445724  5.374905
585   3 0.0000  -2.254705   1.774794 10.419898
586   3 0.0000  -3.921509  -0.896136 15.464892
587   3 0.0000  -5.588314  -3.567066 20.509885
588   3 0.0000  -7.255118  -6.237996 25.554879
589   3 0.0000  -1.534256  12.458511  0.329912
590   3 0.0000  -3.201061   9.787581  5.374905
591   3 0.0000  -4.867865   7.116651 10.419898
592   3 0.0000  -6.534670   4.445721 15.464892
593   3 0.0000  -8.201475   1.774791 20.509885
594   3 0.0000  -9.868279  -0.896139 25.554879
595   3 0.0000  -4.147417  17.800369  0.329912
596   3 0.0000  -5.814221  15.129439  5.374905
597   3 0.0000  -7.481026  12.458508 10.419898
598   3 0.0000  -9.147831   9.787578 15.464892
599   3 0.0000 -10.814635   7.116648 20.509885
600   3 0.0000 -12.481440   4.445718 25.554879
601   3 0.0000   9.638834   1.774797  0.329912
602   3 0.0000   7.972029  -0.896133  5.374905
603   3 0.0000   6.305225  -3.567063 10.419898
604   3 0.0000   4.638420  -6.237993 15.464892
605   3 0.0000   2.971615  -8.908923 20.509885
606   3 0.0000   1.304811 -11.579853 25.554879
607   3 0.0000   7.025673   7.116654  0.329912
608   3 0.0000   5.358869   4.445724  5.374905
609   3 0.0000   3.692064   1.774794 10.419898
610   3 0.0000   2.025259  -0.896136 15.464892
611   3 0.0000   0.358455  -3.567066 20.509885
612   3 0.0000  -1.308350  -6.237996 25.554879
613   3 0.0000   4.412512  12.458511  0.329912
614   3 0.0000   2.745708   9.787581  5.374905
615   3 0.0000   1.078903   7.116651 10.419898
616   3 0.0000  -0.587901   4.445721 15.464892
617   3 0.0000  -2.254706   1.774791 20.509885
618   3 0.0000  -3.921511  -0.896139 25.554879
619   3 0.0000   1.799352  17.800369  0.329912
620   3 0.0000   0.132547  15.129439  5.374905
621   3 0.0000  -1.534257  12.458508 10.419898
622   3 0.0000  -3.201062   9.787578 15.464892
623   3 0.0000  -4.867867   7.116648 20.509885
624   3 0.0000  -6.534671   4.445718 25.554879
625   3 0.0000  15.585602   1.774797  0.329912
626   3 0.0000  13.918798  -0.896133  5.374905
627   3 0.0000  12.251993  -3.567063 10.419898
628   3 0.0000  10.585188  -6.237993 15.464892
629   3 0.0000   8.918384  -8.908923 20.509885
630   3 0.0000   7.251579 -11.579853 25.554879
631   3 0.0000  12.972442   7.116654  0.329912
632   3 0.0000  11.305637   4.445724  5.374905