Generated by pymatgen.io.lammps.data.LammpsData

64  atoms

 2  atom types

0.000000 6.474702  xlo xhi
0.000000 5.607257  ylo yhi
0.000000 20.888245  zlo zhi
-3.237350 0.000000 0.000000  xy xz yz

Masses

1  65.4090
2  15.9994

Atoms

1   1 0.0000  1.618676 0.934543  2.614121
2   1 0.0000  1.618676 0.934543  7.836182
3   1 0.0000  1.618676 0.934543 13.058243
4   1 0.0000  1.618676 0.934543 18.280304
5   1 0.0000  0.000001 3.738171  2.614121
6   1 0.0000  0.000001 3.738171  7.836182
7   1 0.0000  0.000001 3.738171 13.058243
8   1 0.0000  0.000001 3.738171 18.280304
9   1 0.0000  4.856027 0.934543  2.614121
10  1 0.0000  4.856027 0.934543  7.836182
11  1 0.0000  4.856027 0.934543 13.058243
12  1 0.0000  4.856027 0.934543 18.280304
13  1 0.0000  3.237352 3.738171  2.614121
14  1 0.0000  3.237352 3.738171  7.836182
15  1 0.0000  3.237352 3.738171 13.058243
16  1 0.0000  3.237352 3.738171 18.280304
17  1 0.0000  0.000000 1.869086  0.003090
18  1 0.0000  0.000000 1.869086  5.225151
19  1 0.0000  0.000000 1.869086 10.447212
20  1 0.0000  0.000000 1.869086 15.669274
21  1 0.0000 -1.618675 4.672714  0.003090
22  1 0.0000 -1.618675 4.672714  5.225151
23  1 0.0000 -1.618675 4.672714 10.447212
24  1 0.0000 -1.618675 4.672714 15.669274
25  1 0.0000  3.237352 1.869086  0.003090
26  1 0.0000  3.237352 1.869086  5.225151
27  1 0.0000  3.237352 1.869086 10.447212
28  1 0.0000  3.237352 1.869086 15.669274
29  1 0.0000  1.618676 4.672714  0.003090
30  1 0.0000  1.618676 4.672714  5.225151
31  1 0.0000  1.618676 4.672714 10.447212
32  1 0.0000  1.618676 4.672714 15.669274
33  2 0.0000  1.618676 0.934543  4.593943
34  2 0.0000  1.618676 0.934543  9.816004
35  2 0.0000  1.618676 0.934543 15.038065
36  2 0.0000  1.618676 0.934543 20.260127
37  2 0.0000  0.000001 3.738171  4.593943
38  2 0.0000  0.000001 3.738171  9.816004
39  2 0.0000  0.000001 3.738171 15.038065
40  2 0.0000  0.000001 3.738171 20.260127
41  2 0.0000  4.856027 0.934543  4.593943
42  2 0.0000  4.856027 0.934543  9.816004
43  2 0.0000  4.856027 0.934543 15.038065
44  2 0.0000  4.856027 0.934543 20.260127
45  2 0.0000  3.237352 3.738171  4.593943
46  2 0.0000  3.237352 3.738171  9.816004
47  2 0.0000  3.237352 3.738171 15.038065
48  2 0.0000  3.237352 3.738171 20.260127
49  2 0.0000  0.000000 1.869086  1.982912
50  2 0.0000  0.000000 1.869086  7.204974
51  2 0.0000  0.000000 1.869086 12.427035
52  2 0.0000  0.000000 1.869086 17.649096
53  2 0.0000 -1.618675 4.672714  1.982912
54  2 0.0000 -1.618675 4.672714  7.204974
55  2 0.0000 -1.618675 4.672714 12.427035
56  2 0.0000 -1.618675 4.672714 17.649096
57  2 0.0000  3.237352 1.869086  1.982912
58  2 0.0000  3.237352 1.869086  7.204974
59  2 0.0000  3.237352 1.869086 12.427035
60  2 0.0000  3.237352 1.869086 17.649096
61  2 0.0000  1.618676 4.672714  1.982912
62  2 0.0000  1.618676 4.672714  7.204974
63  2 0.0000  1.618676 4.672714 12.427035
64  2 0.0000  1.618676 4.672714 17.649096

