Generated by pymatgen.io.lammps.data.LammpsData

384  atoms

  2  atom types

0.000000 12.949405  xlo xhi
0.000000 11.214513  ylo yhi
0.000000 31.332368  zlo zhi
-6.474700 0.000000 0.000000  xy xz yz

Masses

1  65.4090
2  15.9994

Atoms

1    1 0.0000  1.618676  0.934543  2.614121
2    1 0.0000  1.618676  0.934543  7.836182
3    1 0.0000  1.618676  0.934543 13.058243
4    1 0.0000  1.618676  0.934543 18.280304
5    1 0.0000  1.618676  0.934543 23.502366
6    1 0.0000  1.618676  0.934543 28.724427
7    1 0.0000  0.000001  3.738171  2.614121
8    1 0.0000  0.000001  3.738171  7.836182
9    1 0.0000  0.000001  3.738171 13.058243
10   1 0.0000  0.000001  3.738171 18.280304
11   1 0.0000  0.000001  3.738171 23.502366
12   1 0.0000  0.000001  3.738171 28.724427
13   1 0.0000 -1.618674  6.541799  2.614121
14   1 0.0000 -1.618674  6.541799  7.836182
15   1 0.0000 -1.618674  6.541799 13.058243
16   1 0.0000 -1.618674  6.541799 18.280304
17   1 0.0000 -1.618674  6.541799 23.502366
18   1 0.0000 -1.618674  6.541799 28.724427
19   1 0.0000 -3.237350  9.345428  2.614121
20   1 0.0000 -3.237350  9.345428  7.836182
21   1 0.0000 -3.237350  9.345428 13.058243
22   1 0.0000 -3.237350  9.345428 18.280304
23   1 0.0000 -3.237350  9.345428 23.502366
24   1 0.0000 -3.237350  9.345428 28.724427
25   1 0.0000  4.856027  0.934543  2.614121
26   1 0.0000  4.856027  0.934543  7.836182
27   1 0.0000  4.856027  0.934543 13.058243
28   1 0.0000  4.856027  0.934543 18.280304
29   1 0.0000  4.856027  0.934543 23.502366
30   1 0.0000  4.856027  0.934543 28.724427
31   1 0.0000  3.237352  3.738171  2.614121
32   1 0.0000  3.237352  3.738171  7.836182
33   1 0.0000  3.237352  3.738171 13.058243
34   1 0.0000  3.237352  3.738171 18.280304
35   1 0.0000  3.237352  3.738171 23.502366
36   1 0.0000  3.237352  3.738171 28.724427
37   1 0.0000  1.618677  6.541799  2.614121
38   1 0.0000  1.618677  6.541799  7.836182
39   1 0.0000  1.618677  6.541799 13.058243
40   1 0.0000  1.618677  6.541799 18.280304
41   1 0.0000  1.618677  6.541799 23.502366
42   1 0.0000  1.618677  6.541799 28.724427
43   1 0.0000  0.000002  9.345428  2.614121
44   1 0.0000  0.000002  9.345428  7.836182
45   1 0.0000  0.000002  9.345428 13.058243
46   1 0.0000  0.000002  9.345428 18.280304
47   1 0.0000  0.000002  9.345428 23.502366
48   1 0.0000  0.000002  9.345428 28.724427
49   1 0.0000  8.093378  0.934543  2.614121
50   1 0.0000  8.093378  0.934543  7.836182
51   1 0.0000  8.093378  0.934543 13.058243
52   1 0.0000  8.093378  0.934543 18.280304
53   1 0.0000  8.093378  0.934543 23.502366
54   1 0.0000  8.093378  0.934543 28.724427
55   1 0.0000  6.474703  3.738171  2.614121
56   1 0.0000  6.474703  3.738171  7.836182
57   1 0.0000  6.474703  3.738171 13.058243
58   1 0.0000  6.474703  3.738171 18.280304
59   1 0.0000  6.474703  3.738171 23.502366
60   1 0.0000  6.474703  3.738171 28.724427
61   1 0.0000  4.856028  6.541799  2.614121
62   1 0.0000  4.856028  6.541799  7.836182
63   1 0.0000  4.856028  6.541799 13.058243
64   1 0.0000  4.856028  6.541799 18.280304
65   1 0.0000  4.856028  6.541799 23.502366
66   1 0.0000  4.856028  6.541799 28.724427
67   1 0.0000  3.237353  9.345428  2.614121
68   1 0.0000  3.237353  9.345428  7.836182
69   1 0.0000  3.237353  9.345428 13.058243
70   1 0.0000  3.237353  9.345428 18.280304
71   1 0.0000  3.237353  9.345428 23.502366
72   1 0.0000  3.237353  9.345428 28.724427
73   1 0.0000 11.330729  0.934543  2.614121
74   1 0.0000 11.330729  0.934543  7.836182
75   1 0.0000 11.330729  0.934543 13.058243
76   1 0.0000 11.330729  0.934543 18.280304
77   1 0.0000 11.330729  0.934543 23.502366
78   1 0.0000 11.330729  0.934543 28.724427
79   1 0.0000  9.712054  3.738171  2.614121
80   1 0.0000  9.712054  3.738171  7.836182
81   1 0.0000  9.712054  3.738171 13.058243
82   1 0.0000  9.712054  3.738171 18.280304
83   1 0.0000  9.712054  3.738171 23.502366
84   1 0.0000  9.712054  3.738171 28.724427
85   1 0.0000  8.093379  6.541799  2.614121
86   1 0.0000  8.093379  6.541799  7.836182
87   1 0.0000  8.093379  6.541799 13.058243
88   1 0.0000  8.093379  6.541799 18.280304
89   1 0.0000  8.093379  6.541799 23.502366
90   1 0.0000  8.093379  6.541799 28.724427
91   1 0.0000  6.474704  9.345428  2.614121
92   1 0.0000  6.474704  9.345428  7.836182
93   1 0.0000  6.474704  9.345428 13.058243
94   1 0.0000  6.474704  9.345428 18.280304
95   1 0.0000  6.474704  9.345428 23.502366
96   1 0.0000  6.474704  9.345428 28.724427
97   1 0.0000  0.000000  1.869086  0.003090
98   1 0.0000  0.000000  1.869086  5.225151
99   1 0.0000  0.000000  1.869086 10.447212
100  1 0.0000  0.000000  1.869086 15.669274
101  1 0.0000  0.000000  1.869086 20.891335
102  1 0.0000  0.000000  1.869086 26.113396
103  1 0.0000 -1.618675  4.672714  0.003090
104  1 0.0000 -1.618675  4.672714  5.225151
105  1 0.0000 -1.618675  4.672714 10.447212
106  1 0.0000 -1.618675  4.672714 15.669274
107  1 0.0000 -1.618675  4.672714 20.891335
108  1 0.0000 -1.618675  4.672714 26.113396
109  1 0.0000 -3.237350  7.476342  0.003090
110  1 0.0000 -3.237350  7.476342  5.225151
111  1 0.0000 -3.237350  7.476342 10.447212
112  1 0.0000 -3.237350  7.476342 15.669274
113  1 0.0000 -3.237350  7.476342 20.891335
114  1 0.0000 -3.237350  7.476342 26.113396
115  1 0.0000 -4.856025 10.279970  0.003090
116  1 0.0000 -4.856025 10.279970  5.225151
117  1 0.0000 -4.856025 10.279970 10.447212
118  1 0.0000 -4.856025 10.279970 15.669274
119  1 0.0000 -4.856025 10.279970 20.891335
120  1 0.0000 -4.856025 10.279970 26.113396
121  1 0.0000  3.237352  1.869086  0.003090
122  1 0.0000  3.237352  1.869086  5.225151
123  1 0.0000  3.237352  1.869086 10.447212
124  1 0.0000  3.237352  1.869086 15.669274
125  1 0.0000  3.237352  1.869086 20.891335
126  1 0.0000  3.237352  1.869086 26.113396
127  1 0.0000  1.618676  4.672714  0.003090
128  1 0.0000  1.618676  4.672714  5.225151
129  1 0.0000  1.618676  4.672714 10.447212
130  1 0.0000  1.618676  4.672714 15.669274
131  1 0.0000  1.618676  4.672714 20.891335
132  1 0.0000  1.618676  4.672714 26.113396
133  1 0.0000  0.000001  7.476342  0.003090
134  1 0.0000  0.000001  7.476342  5.225151
135  1 0.0000  0.000001  7.476342 10.447212
136  1 0.0000  0.000001  7.476342 15.669274
137  1 0.0000  0.000001  7.476342 20.891335
138  1 0.0000  0.000001  7.476342 26.113396
139  1 0.0000 -1.618674 10.279970  0.003090
140  1 0.0000 -1.618674 10.279970  5.225151
141  1 0.0000 -1.618674 10.279970 10.447212
142  1 0.0000 -1.618674 10.279970 15.669274
143  1 0.0000 -1.618674 10.279970 20.891335
144  1 0.0000 -1.618674 10.279970 26.113396
145  1 0.0000  6.474703  1.869086  0.003090
146  1 0.0000  6.474703  1.869086  5.225151
147  1 0.0000  6.474703  1.869086 10.447212
148  1 0.0000  6.474703  1.869086 15.669274
149  1 0.0000  6.474703  1.869086 20.891335
150  1 0.0000  6.474703  1.869086 26.113396
151  1 0.0000  4.856028  4.672714  0.003090
152  1 0.0000  4.856028  4.672714  5.225151
153  1 0.0000  4.856028  4.672714 10.447212
154  1 0.0000  4.856028  4.672714 15.669274
155  1 0.0000  4.856028  4.672714 20.891335
156  1 0.0000  4.856028  4.672714 26.113396
157  1 0.0000  3.237353  7.476342  0.003090
158  1 0.0000  3.237353  7.476342  5.225151
159  1 0.0000  3.237353  7.476342 10.447212
160  1 0.0000  3.237353  7.476342 15.669274
161  1 0.0000  3.237353  7.476342 20.891335
162  1 0.0000  3.237353  7.476342 26.113396
163  1 0.0000  1.618677 10.279970  0.003090
164  1 0.0000  1.618677 10.279970  5.225151
165  1 0.0000  1.618677 10.279970 10.447212
166  1 0.0000  1.618677 10.279970 15.669274
167  1 0.0000  1.618677 10.279970 20.891335
168  1 0.0000  1.618677 10.279970 26.113396
169  1 0.0000  9.712054  1.869086  0.003090
170  1 0.0000  9.712054  1.869086  5.225151
171  1 0.0000  9.712054  1.869086 10.447212
172  1 0.0000  9.712054  1.869086 15.669274
173  1 0.0000  9.712054  1.869086 20.891335
174  1 0.0000  9.712054  1.869086 26.113396
175  1 0.0000  8.093379  4.672714  0.003090
176  1 0.0000  8.093379  4.672714  5.225151
177  1 0.0000  8.093379  4.672714 10.447212
178  1 0.0000  8.093379  4.672714 15.669274
179  1 0.0000  8.093379  4.672714 20.891335
180  1 0.0000  8.093379  4.672714 26.113396
181  1 0.0000  6.474704  7.476342  0.003090
182  1 0.0000  6.474704  7.476342  5.225151
183  1 0.0000  6.474704  7.476342 10.447212
184  1 0.0000  6.474704  7.476342 15.669274
185  1 0.0000  6.474704  7.476342 20.891335
186  1 0.0000  6.474704  7.476342 26.113396
187  1 0.0000  4.856029 10.279970  0.003090
188  1 0.0000  4.856029 10.279970  5.225151
189  1 0.0000  4.856029 10.279970 10.447212
190  1 0.0000  4.856029 10.279970 15.669274
191  1 0.0000  4.856029 10.279970 20.891335
192  1 0.0000  4.856029 10.279970 26.113396
193  2 0.0000  1.618676  0.934543  4.593943
194  2 0.0000  1.618676  0.934543  9.816004
195  2 0.0000  1.618676  0.934543 15.038065
196  2 0.0000  1.618676  0.934543 20.260127
197  2 0.0000  1.618676  0.934543 25.482188
198  2 0.0000  1.618676  0.934543 30.704249
199  2 0.0000  0.000001  3.738171  4.593943
200  2 0.0000  0.000001  3.738171  9.816004
201  2 0.0000  0.000001  3.738171 15.038065
202  2 0.0000  0.000001  3.738171 20.260127
203  2 0.0000  0.000001  3.738171 25.482188
204  2 0.0000  0.000001  3.738171 30.704249
205  2 0.0000 -1.618674  6.541799  4.593943
206  2 0.0000 -1.618674  6.541799  9.816004
207  2 0.0000 -1.618674  6.541799 15.038065
208  2 0.0000 -1.618674  6.541799 20.260127
209  2 0.0000 -1.618674  6.541799 25.482188
210  2 0.0000 -1.618674  6.541799 30.704249
211  2 0.0000 -3.237350  9.345428  4.593943
212  2 0.0000 -3.237350  9.345428  9.816004
213  2 0.0000 -3.237350  9.345428 15.038065
214  2 0.0000 -3.237350  9.345428 20.260127
215  2 0.0000 -3.237350  9.345428 25.482188
216  2 0.0000 -3.237350  9.345428 30.704249
217  2 0.0000  4.856027  0.934543  4.593943
218  2 0.0000  4.856027  0.934543  9.816004
219  2 0.0000  4.856027  0.934543 15.038065
220  2 0.0000  4.856027  0.934543 20.260127
221  2 0.0000  4.856027  0.934543 25.482188
222  2 0.0000  4.856027  0.934543 30.704249
223  2 0.0000  3.237352  3.738171  4.593943
224  2 0.0000  3.237352  3.738171  9.816004
225  2 0.0000  3.237352  3.738171 15.038065
226  2 0.0000  3.237352  3.738171 20.260127
227  2 0.0000  3.237352  3.738171 25.482188
228  2 0.0000  3.237352  3.738171 30.704249
229  2 0.0000  1.618677  6.541799  4.593943
230  2 0.0000  1.618677  6.541799  9.816004
231  2 0.0000  1.618677  6.541799 15.038065
232  2 0.0000  1.618677  6.541799 20.260127
233  2 0.0000  1.618677  6.541799 25.482188
234  2 0.0000  1.618677  6.541799 30.704249
235  2 0.0000  0.000002  9.345428  4.593943
236  2 0.0000  0.000002  9.345428  9.816004
237  2 0.0000  0.000002  9.345428 15.038065
238  2 0.0000  0.000002  9.345428 20.260127
239  2 0.0000  0.000002  9.345428 25.482188
240  2 0.0000  0.000002  9.345428 30.704249
241  2 0.0000  8.093378  0.934543  4.593943
242  2 0.0000  8.093378  0.934543  9.816004
243  2 0.0000  8.093378  0.934543 15.038065
244  2 0.0000  8.093378  0.934543 20.260127
245  2 0.0000  8.093378  0.934543 25.482188
246  2 0.0000  8.093378  0.934543 30.704249
247  2 0.0000  6.474703  3.738171  4.593943
248  2 0.0000  6.474703  3.738171  9.816004
249  2 0.0000  6.474703  3.738171 15.038065
250  2 0.0000  6.474703  3.738171 20.260127
251  2 0.0000  6.474703  3.738171 25.482188
252  2 0.0000  6.474703  3.738171 30.704249
253  2 0.0000  4.856028  6.541799  4.593943
254  2 0.0000  4.856028  6.541799  9.816004
255  2 0.0000  4.856028  6.541799 15.038065
256  2 0.0000  4.856028  6.541799 20.260127
257  2 0.0000  4.856028  6.541799 25.482188
258  2 0.0000  4.856028  6.541799 30.704249
259  2 0.0000  3.237353  9.345428  4.593943
260  2 0.0000  3.237353  9.345428  9.816004
261  2 0.0000  3.237353  9.345428 15.038065
262  2 0.0000  3.237353  9.345428 20.260127
263  2 0.0000  3.237353  9.345428 25.482188
264  2 0.0000  3.237353  9.345428 30.704249
265  2 0.0000 11.330729  0.934543  4.593943
266  2 0.0000 11.330729  0.934543  9.816004
267  2 0.0000 11.330729  0.934543 15.038065
268  2 0.0000 11.330729  0.934543 20.260127
269  2 0.0000 11.330729  0.934543 25.482188
270  2 0.0000 11.330729  0.934543 30.704249
271  2 0.0000  9.712054  3.738171  4.593943
272  2 0.0000  9.712054  3.738171  9.816004
273  2 0.0000  9.712054  3.738171 15.038065
274  2 0.0000  9.712054  3.738171 20.260127
275  2 0.0000  9.712054  3.738171 25.482188
276  2 0.0000  9.712054  3.738171 30.704249
277  2 0.0000  8.093379  6.541799  4.593943
278  2 0.0000  8.093379  6.541799  9.816004
279  2 0.0000  8.093379  6.541799 15.038065
280  2 0.0000  8.093379  6.541799 20.260127
281  2 0.0000  8.093379  6.541799 25.482188
282  2 0.0000  8.093379  6.541799 30.704249
283  2 0.0000  6.474704  9.345428  4.593943
284  2 0.0000  6.474704  9.345428  9.816004
285  2 0.0000  6.474704  9.345428 15.038065
286  2 0.0000  6.474704  9.345428 20.260127
287  2 0.0000  6.474704  9.345428 25.482188
288  2 0.0000  6.474704  9.345428 30.704249
289  2 0.0000  0.000000  1.869086  1.982912
290  2 0.0000  0.000000  1.869086  7.204974
291  2 0.0000  0.000000  1.869086 12.427035
292  2 0.0000  0.000000  1.869086 17.649096
293  2 0.0000  0.000000  1.869086 22.871157
294  2 0.0000  0.000000  1.869086 28.093219
295  2 0.0000 -1.618675  4.672714  1.982912
296  2 0.0000 -1.618675  4.672714  7.204974
297  2 0.0000 -1.618675  4.672714 12.427035
298  2 0.0000 -1.618675  4.672714 17.649096
299  2 0.0000 -1.618675  4.672714 22.871157
300  2 0.0000 -1.618675  4.672714 28.093219
301  2 0.0000 -3.237350  7.476342  1.982912
302  2 0.0000 -3.237350  7.476342  7.204974
303  2 0.0000 -3.237350  7.476342 12.427035
304  2 0.0000 -3.237350  7.476342 17.649096
305  2 0.0000 -3.237350  7.476342 22.871157
306  2 0.0000 -3.237350  7.476342 28.093219
307  2 0.0000 -4.856025 10.279970  1.982912
308  2 0.0000 -4.856025 10.279970  7.204974
309  2 0.0000 -4.856025 10.279970 12.427035
310  2 0.0000 -4.856025 10.279970 17.649096
311  2 0.0000 -4.856025 10.279970 22.871157
312  2 0.0000 -4.856025 10.279970 28.093219
313  2 0.0000  3.237352  1.869086  1.982912
314  2 0.0000  3.237352  1.869086  7.204974
315  2 0.0000  3.237352  1.869086 12.427035
316  2 0.0000  3.237352  1.869086 17.649096
317  2 0.0000  3.237352  1.869086 22.871157
318  2 0.0000  3.237352  1.869086 28.093219
319  2 0.0000  1.618676  4.672714  1.982912
320  2 0.0000  1.618676  4.672714  7.204974
321  2 0.0000  1.618676  4.672714 12.427035
322  2 0.0000  1.618676  4.672714 17.649096
323  2 0.0000  1.618676  4.672714 22.871157
324  2 0.0000  1.618676  4.672714 28.093219
325  2 0.0000  0.000001  7.476342  1.982912
326  2 0.0000  0.000001  7.476342  7.204974
327  2 0.0000  0.000001  7.476342 12.427035
328  2 0.0000  0.000001  7.476342 17.649096
329  2 0.0000  0.000001  7.476342 22.871157
330  2 0.0000  0.000001  7.476342 28.093219
331  2 0.0000 -1.618674 10.279970  1.982912
332  2 0.0000 -1.618674 10.279970  7.204974
333  2 0.0000 -1.618674 10.279970 12.427035
334  2 0.0000 -1.618674 10.279970 17.649096
335  2 0.0000 -1.618674 10.279970 22.871157
336  2 0.0000 -1.618674 10.279970 28.093219
337  2 0.0000  6.474703  1.869086  1.982912
338  2 0.0000  6.474703  1.869086  7.204974
339  2 0.0000  6.474703  1.869086 12.427035
340  2 0.0000  6.474703  1.869086 17.649096
341  2 0.0000  6.474703  1.869086 22.871157
342  2 0.0000  6.474703  1.869086 28.093219
343  2 0.0000  4.856028  4.672714  1.982912
344  2 0.0000  4.856028  4.672714  7.204974
345  2 0.0000  4.856028  4.672714 12.427035
346  2 0.0000  4.856028  4.672714 17.649096
347  2 0.0000  4.856028  4.672714 22.871157
348  2 0.0000  4.856028  4.672714 28.093219
349  2 0.0000  3.237353  7.476342  1.982912
350  2 0.0000  3.237353  7.476342  7.204974
351  2 0.0000  3.237353  7.476342 12.427035
352  2 0.0000  3.237353  7.476342 17.649096
353  2 0.0000  3.237353  7.476342 22.871157
354  2 0.0000  3.237353  7.476342 28.093219
355  2 0.0000  1.618677 10.279970  1.982912
356  2 0.0000  1.618677 10.279970  7.204974
357  2 0.0000  1.618677 10.279970 12.427035
358  2 0.0000  1.618677 10.279970 17.649096
359  2 0.0000  1.618677 10.279970 22.871157
360  2 0.0000  1.618677 10.279970 28.093219
361  2 0.0000  9.712054  1.869086  1.982912
362  2 0.0000  9.712054  1.869086  7.204974
363  2 0.0000  9.712054  1.869086 12.427035
364  2 0.0000  9.712054  1.869086 17.649096
365  2 0.0000  9.712054  1.869086 22.871157
366  2 0.0000  9.712054  1.869086 28.093219
367  2 0.0000  8.093379  4.672714  1.982912
368  2 0.0000  8.093379  4.672714  7.204974
369  2 0.0000  8.093379  4.672714 12.427035
370  2 0.0000  8.093379  4.672714 17.649096
371  2 0.0000  8.093379  4.672714 22.871157
372  2 0.0000  8.093379  4.672714 28.093219
373  2 0.0000  6.474704  7.476342  1.982912
374  2 0.0000  6.474704  7.476342  7.204974
375  2 0.0000  6.474704  7.476342 12.427035
376  2 0.0000  6.474704  7.476342 17.649096
377  2 0.0000  6.474704  7.476342 22.871157
378  2 0.0000  6.474704  7.476342 28.093219
379  2 0.0000  4.856029 10.279970  1.982912
380  2 0.0000  4.856029 10.279970  7.204974
381  2 0.0000  4.856029 10.279970 12.427035
382  2 0.0000  4.856029 10.279970 17.649096
383  2 0.0000  4.856029 10.279970 22.871157
384  2 0.0000  4.856029 10.279970 28.093219

